# vtk DataFile Version 2.0
crystal.vtk
ASCII
DATASET STRUCTURED_POINTS
DIMENSIONS 158 10 1
ORIGIN 0 -0.003 0
SPACING 0.000605096 0.000666667 0
POINT_DATA 1580
SCALARS values double 1
LOOKUP_TABLE default
0.0506656
0.0619134
0.0705737
0.0926857
0.111085
0.13186
0.169188
0.222324
0.231933
0.271058
0.318481
0.324452
0.326822
0.311678
0.288133
0.26318
0.232696
0.204563
0.163141
0.127066
0.0715881
0.0682319
0.0661296
0.0695429
0.0734968
0.0643257
0.0598978
0.0689243
0.0715392
0.0616422
0.0672066
0.065504
0.0664334
0.0657843
0.0593446
0.0628662
0.070455
0.065398
0.0678376
0.0718857
0.0627499
0.0667133
0.0674089
0.0640606
0.063309
0.0645332
0.0628542
0.0625675
0.0679157
0.0611213
0.0613422
0.0614901
0.0644878
0.0649612
0.0655928
0.0584605
0.0658963
0.0662601
0.072206
0.0654165
0.064865
0.0547965
0.0632024
0.0611372
0.0649782
0.0683818
0.0633742
0.0619991
0.0610243
0.0603891
0.06837
0.0648999
0.0624297
0.0603559
0.0667703
0.0595249
0.0673185
0.0634464
0.0624856
0.0645468
0.0654342
0.0605918
0.0675537
0.0676866
0.0646174
0.0661971
0.0627468
0.0664505
0.0657514
0.0621204
0.0610998
0.0668399
0.0660358
0.071323
0.0723365
0.0679931
0.0672798
0.0752823
0.0686741
0.0685785
0.0709001
0.0730852
0.0676535
0.0708768
0.069879
0.0714103
0.0716136
0.0746129
0.0771479
0.0752746
0.0788952
0.0799015
0.0742354
0.0694677
0.077584
0.0798386
0.0781845
0.0775328
0.076561
0.0814462
0.0802184
0.0830086
0.0916137
0.0879968
0.0908772
0.0857643
0.0923255
0.0874455
0.0961759
0.0944074
0.0974505
0.10435
0.107051
0.103362
0.107536
0.107338
0.116169
0.112317
0.118156
0.128765
0.132616
0.15123
0.157709
0.150982
0.160855
0.190965
0.200619
0.236698
0.274579
0.325351
0.448844
0.499681
0.368622
0.545911
0.526954
0.0881477
0
0
0.045747
0.0535936
0.0687035
0.0847684
0.100818
0.123039
0.157645
0.215094
0.23294
0.276102
0.321907
0.322373
0.308289
0.309653
0.280104
0.258025
0.227938
0.186372
0.148505
0.0986427
0.0615772
0.061956
0.0613328
0.0623443
0.0669125
0.0609822
0.0579655
0.0598298
0.066486
0.0605123
0.0604411
0.0614846
0.0613181
0.0602982
0.0537441
0.0586742
0.0641482
0.058386
0.06469
0.0621058
0.0610738
0.0615613
0.063672
0.0590219
0.0571272
0.0608033
0.0581161
0.0579189
0.0640109
0.0550157
0.0574238
0.0569297
0.0561706
0.0598442
0.0608415
0.0564137
0.0605113
0.0580219
0.065545
0.0605519
0.0620862
0.0509458
0.056253
0.0573415
0.0575428
0.0665827
0.0568055
0.0580036
0.0603532
0.0558557
0.0593771
0.0604472
0.0566323
0.05883
0.0584831
0.0560359
0.0609224
0.0596444
0.0584901
0.0591966
0.0589908
0.0583012
0.0589471
0.0611799
0.0642266
0.0565241
0.059733
0.0604127
0.0594775
0.0617846
0.0539102
0.0620088
0.0609138
0.0643025
0.0652699
0.0621772
0.0652671
0.0688774
0.0636763
0.0638475
0.0661725
0.0660058
0.0626618
0.0681816
0.0624942
0.0660344
0.0664184
0.0680166
0.071025
0.0681451
0.0757402
0.0725964
0.071131
0.0633694
0.0710534
0.0746506
0.073656
0.0697052
0.0697526
0.0782521
0.0744747
0.0747835
0.0830349
0.0848527
0.0810941
0.0841072
0.0841482
0.0814227
0.0865959
0.0874384
0.0910478
0.097518
0.0986415
0.0972392
0.0982159
0.098479
0.105407
0.107018
0.107769
0.122281
0.123014
0.140244
0.149457
0.139573
0.145942
0.183342
0.184835
0.218698
0.263464
0.299478
0.422072
0.53424
0.440328
0.544014
0.323707
0.00365674
0
0
0.0413561
0.0499846
0.0680027
0.0787078
0.0920038
0.116444
0.152385
0.197681
0.250535
0.286345
0.313827
0.323205
0.298124
0.300152
0.278603
0.255934
0.229686
0.171644
0.131846
0.0766242
0.0613603
0.0533261
0.0633609
0.0571575
0.0620724
0.059473
0.0551914
0.0543418
0.0635693
0.0621367
0.0553253
0.0559141
0.0567204
0.0585506
0.0512068
0.0563646
0.0608064
0.0528692
0.0611372
0.058737
0.0582814
0.0578716
0.0602398
0.0557815
0.0565896
0.0552597
0.0538458
0.0571202
0.0604904
0.0523825
0.0544951
0.0530298
0.0543317
0.0522518
0.0599038
0.0568121
0.0534363
0.0556614
0.0616839
0.0566992
0.0559175
0.0534274
0.0504229
0.0556791
0.054862
0.0618157
0.0537644
0.0548757
0.058254
0.0529228
0.0547216
0.0580117
0.0519573
0.058786
0.0521497
0.0533443
0.0596608
0.0529927
0.0576199
0.0551448
0.0574958
0.0546904
0.054281
0.0604948
0.0605287
0.0510816
0.054943
0.0607736
0.0556588
0.0582924
0.0505283
0.0584263
0.0608713
0.058423
0.0607214
0.0593293
0.0629289
0.0632985
0.0629413
0.0572931
0.0650332
0.0589063
0.0620074
0.0605065
0.0650898
0.0623799
0.0608236
0.0626242
0.0685548
0.067983
0.0693074
0.0653317
0.0699319
0.0607047
0.0685794
0.0693189
0.0691035
0.0647388
0.0682659
0.0759624
0.0689073
0.0714744
0.0770511
0.0829846
0.0745364
0.0823211
0.07934
0.0784287
0.0799258
0.0831718
0.0863456
0.0944518
0.0914236
0.0927073
0.0936135
0.093233
0.0994749
0.101048
0.103845
0.115944
0.118825
0.134042
0.138445
0.135241
0.142285
0.16934
0.179899
0.209067
0.246354
0.290536
0.394043
0.561793
0.572151
0.468351
0.136569
0
0
3.39484e-05
0.0366299
0.0509633
0.0638856
0.0742048
0.086973
0.111722
0.1525
0.184568
0.257757
0.296623
0.311047
0.315874
0.29767
0.29026
0.281068
0.258213
0.230105
0.170391
0.112484
0.0616189
0.0605257
0.0523752
0.0605248
0.057886
0.0555476
0.058072
0.0543765
0.0533261
0.0592784
0.0604194
0.0550913
0.0531671
0.055579
0.0569814
0.0516838
0.0537905
0.0549486
0.0532531
0.0550813
0.0565206
0.060388
0.0538445
0.057388
0.0566091
0.0535386
0.0521664
0.052883
0.0568915
0.0550657
0.0544955
0.0504876
0.0534966
0.0488241
0.0522181
0.0560174
0.0553018
0.0501785
0.05733
0.0585886
0.0550556
0.0515875
0.0540414
0.0453755
0.054727
0.0552174
0.056979
0.0561134
0.051668
0.0549004
0.0505466
0.0528019
0.0554389
0.0522159
0.0554041
0.0487591
0.0558297
0.0560186
0.0521608
0.0514904
0.055863
0.0562791
0.0536176
0.0516952
0.0600215
0.0586909
0.0483404
0.0539234
0.0574614
0.0533273
0.0571933
0.0473406
0.057092
0.0591584
0.0559668
0.0575918
0.0584408
0.0615602
0.0602132
0.0611809
0.0545302
0.0629097
0.0547692
0.0612814
0.0588508
0.0644805
0.0599835
0.0575807
0.0618781
0.0652495
0.0670877
0.0641254
0.0655485
0.0640953
0.0617217
0.0663513
0.0654417
0.065366
0.0630541
0.0661255
0.0740472
0.067058
0.0694191
0.076563
0.0779972
0.0725878
0.0802239
0.0769814
0.0759143
0.0774224
0.0778021
0.0864157
0.0895475
0.0887163
0.0898095
0.0889716
0.0922388
0.095249
0.100863
0.0999213
0.111729
0.117222
0.127625
0.131925
0.134647
0.142535
0.158846
0.174169
0.206824
0.231338
0.29279
0.372845
0.562054
0.710126
0.373312
0.0300106
0
0
0.000108122
0.0357028
0.0493703
0.0602631
0.0723043
0.086096
0.11054
0.143521
0.186617
0.260427
0.303062
0.310047
0.308948
0.300389
0.283803
0.282443
0.261
0.22619
0.173937
0.0960819
0.0602422
0.0579273
0.0540392
0.0593575
0.0560585
0.0539657
0.0583051
0.0537867
0.0546277
0.0535244
0.0613963
0.0548164
0.0527518
0.0566941
0.053603
0.0532456
0.0523903
0.0520392
0.0524458
0.0517885
0.0583636
0.0579656
0.0543314
0.0567427
0.054254
0.0546797
0.0491534
0.0544119
0.0551572
0.0524115
0.0559359
0.0490458
0.0503316
0.0490814
0.0509588
0.0546744
0.0544531
0.0503647
0.058311
0.0560289
0.0517598
0.0508622
0.0553285
0.0437327
0.052995
0.0539473
0.0551413
0.0574636
0.0525661
0.0519116
0.0508623
0.0497347
0.0538053
0.0537892
0.051538
0.0512143
0.0566029
0.0520305
0.052657
0.0490927
0.0554302
0.0552687
0.0529559
0.0517917
0.0584437
0.0554744
0.0496463
0.0538353
0.0546522
0.0549915
0.0538217
0.0500788
0.0536686
0.0597896
0.0532182
0.0552701
0.0590939
0.0597466
0.0601556
0.0590318
0.0557707
0.0578105
0.0557175
0.0610041
0.058673
0.0638325
0.0587678
0.0554624
0.061378
0.0624554
0.0646456
0.0645128
0.0652342
0.0621773
0.064081
0.063295
0.0641843
0.0637397
0.0640168
0.0626889
0.0707327
0.0679557
0.0704441
0.0759993
0.0760402
0.0717081
0.0789091
0.0759295
0.0743689
0.0748874
0.0775715
0.0848758
0.0884064
0.0867217
0.0874134
0.0879673
0.0916054
0.0942991
0.101582
0.0949848
0.114039
0.110988
0.12786
0.128651
0.133131
0.14247
0.158833
0.166897
0.205361
0.23017
0.287867
0.363053
0.559214
0.776115
0.312338
3.20565e-05
0
0.000106732
2.21922e-05
0.037718
0.0461655
0.0606204
0.0717749
0.0852254
0.11175
0.138873
0.189497
0.261773
0.305504
0.305215
0.307147
0.30364
0.284953
0.281358
0.269238
0.222324
0.171243
0.0928451
0.0633094
0.0567285
0.0582322
0.0567933
0.0575109
0.0517823
0.0582313
0.0563555
0.0543849
0.0532876
0.0613494
0.0557467
0.0531797
0.0552539
0.051601
0.0557615
0.0542897
0.0489875
0.0542195
0.0499603
0.0579258
0.0558217
0.0577372
0.0563688
0.0559875
0.0512582
0.0503838
0.0559721
0.0545857
0.0508383
0.0571233
0.0490364
0.0505785
0.0482921
0.051724
0.0532834
0.05561
0.0518829
0.0571306
0.0543772
0.0514067
0.0513122
0.0538688
0.0480844
0.0501765
0.055797
0.0506434
0.0587363
0.0524514
0.0543491
0.0515891
0.048494
0.0506198
0.0551468
0.0521624
0.0534251
0.0554543
0.0523658
0.05177
0.0492643
0.0546968
0.0563762
0.0516083
0.0548871
0.0572695
0.0497941
0.0553763
0.0537723
0.0536454
0.0548113
0.0533105
0.0534131
0.0541509
0.0576904
0.0521764
0.0554194
0.0591009
0.0617747
0.0592643
0.0585193
0.0582191
0.0538834
0.0579677
0.0613627
0.0594132
0.0633509
0.0576821
0.0559648
0.060418
0.0626401
0.0639135
0.0645689
0.0653028
0.0623453
0.0664061
0.0613732
0.0624586
0.067474
0.06232
0.0635137
0.0690721
0.0685129
0.0726202
0.0755566
0.0760514
0.0707064
0.0793831
0.073969
0.0763251
0.0736165
0.0793299
0.0872549
0.0847925
0.0867912
0.085266
0.0882866
0.0935461
0.0932213
0.101779
0.0957885
0.113966
0.113946
0.125577
0.129757
0.131534
0.14321
0.162379
0.165717
0.200469
0.237635
0.280794
0.366806
0.562533
0.76531
0.319634
0.000180482
4.50976e-05
0.000108631
0
0.0403635
0.0443284
0.0626752
0.0687683
0.0879089
0.114455
0.140318
0.193685
0.257177
0.305686
0.30479
0.303351
0.307962
0.288252
0.283383
0.276216
0.223408
0.168949
0.101671
0.0678746
0.0562546
0.0626074
0.0557507
0.0588529
0.0540783
0.0569737
0.0596278
0.0544649
0.0537999
0.0617893
0.0552726
0.0557846
0.0551333
0.0524622
0.059605
0.0548314
0.0471386
0.0544707
0.053431
0.0571599
0.0562465
0.0589818
0.0568039
0.0568994
0.0527768
0.0529815
0.056062
0.0552151
0.0526866
0.0538183
0.0548744
0.0497678
0.0503245
0.0514123
0.0522171
0.0578492
0.0566315
0.055958
0.0529339
0.0524034
0.0546545
0.0515039
0.0535023
0.0488008
0.055661
0.0526742
0.057965
0.0553402
0.0519657
0.0537028
0.0493711
0.0503383
0.0573268
0.0532435
0.0558671
0.0562663
0.0531081
0.0530674
0.0478541
0.0574546
0.05633
0.0531714
0.0569318
0.0566798
0.0509913
0.054416
0.056925
0.0534644
0.0565047
0.0540636
0.05626
0.0558757
0.0566695
0.053489
0.0558074
0.0625946
0.0631709
0.058698
0.057091
0.0623795
0.0518002
0.0596478
0.0622054
0.064166
0.059836
0.0566446
0.0603434
0.0610848
0.0631157
0.0672965
0.0633752
0.067462
0.0639832
0.0669766
0.0613837
0.0654005
0.0661867
0.0643699
0.0650607
0.0684205
0.0712654
0.0756097
0.0754164
0.0752023
0.0753565
0.0783625
0.0748197
0.0772294
0.0771438
0.0794353
0.0881747
0.0867594
0.0855848
0.0899105
0.0853574
0.0974916
0.0963381
0.103892
0.101719
0.110135
0.114014
0.130418
0.133634
0.129977
0.142236
0.170519
0.168755
0.202898
0.241702
0.287123
0.369076
0.568998
0.696052
0.382323
0.0327693
0.000183305
0
0
0.0419035
0.047333
0.0615021
0.0754353
0.0905324
0.112435
0.147224
0.201892
0.25313
0.297402
0.310738
0.301906
0.306411
0.300853
0.285186
0.275314
0.231585
0.166232
0.118081
0.0801951
0.0593901
0.0643557
0.0596959
0.0592698
0.0578
0.0583127
0.0625093
0.0549925
0.058675
0.0592534
0.0600255
0.058663
0.0540482
0.0583423
0.0608468
0.0550192
0.0494198
0.0546427
0.0573063
0.056079
0.0611909
0.0618763
0.0571743
0.0597578
0.0532939
0.0563269
0.0583185
0.055103
0.0563108
0.0542174
0.0584258
0.0497822
0.0544167
0.0495658
0.0560284
0.0580373
0.0611843
0.0584596
0.0537036
0.0545499
0.0561564
0.051381
0.057854
0.0492268
0.0580643
0.0560681
0.0574655
0.0596333
0.052589
0.0549769
0.0525746
0.0532254
0.0571398
0.0561943
0.0576304
0.0579706
0.0575238
0.0505286
0.0537924
0.055758
0.0589306
0.0583641
0.0602552
0.0552226
0.0558742
0.0554048
0.0577089
0.056462
0.0584092
0.0530964
0.0614858
0.0579529
0.056929
0.0550647
0.0596104
0.0649916
0.0633939
0.0612528
0.058797
0.0652081
0.0516552
0.0629284
0.06392
0.0678448
0.0591526
0.0604415
0.062851
0.0642149
0.0661368
0.0664712
0.0688076
0.0655512
0.0677619
0.0707149
0.0632154
0.0648773
0.0687208
0.0684257
0.0680631
0.0707727
0.0730115
0.0788872
0.076648
0.077009
0.0816303
0.0757666
0.0791998
0.0822874
0.0803044
0.0792387
0.0904757
0.0927276
0.0868125
0.0910612
0.0906734
0.0962981
0.102777
0.108231
0.1069
0.111222
0.116527
0.138661
0.13603
0.13409
0.146793
0.171394
0.180212
0.211384
0.239716
0.30127
0.384422
0.567262
0.564075
0.466173
0.148364
5.39561e-05
0
0
0.0434755
0.0524365
0.0613652
0.0799194
0.0964289
0.118899
0.15434
0.213379
0.247583
0.283854
0.31206
0.306261
0.312913
0.310046
0.300634
0.26819
0.239726
0.169618
0.136149
0.0995074
0.0663749
0.0677352
0.0628499
0.0622297
0.063719
0.0605177
0.0660912
0.0589686
0.0622112
0.0595873
0.0658192
0.0634022
0.054889
0.0626753
0.0642044
0.0571389
0.0542927
0.0567939
0.0608811
0.0577369
0.0662522
0.0640837
0.0618226
0.0610172
0.0584065
0.0600335
0.0588656
0.0581603
0.0617012
0.0568882
0.0593493
0.0535872
0.0576416
0.0547436
0.0586976
0.0613664
0.0633491
0.0625499
0.0579164
0.0564092
0.0566195
0.0548187
0.0623601
0.0544949
0.0586648
0.0601269
0.0580931
0.0650209
0.0557132
0.0562136
0.0574359
0.0562878
0.0595365
0.0600007
0.062693
0.0609388
0.0609403
0.0527104
0.0581552
0.0568393
0.0595482
0.0653608
0.064742
0.0558997
0.058195
0.060062
0.061181
0.0609577
0.0598626
0.0568354
0.0643687
0.0636386
0.0575211
0.0625834
0.0612068
0.0666701
0.0684056
0.0618484
0.0635705
0.0654674
0.0582844
0.0663189
0.0684856
0.0713098
0.0629843
0.0612443
0.0688758
0.0668613
0.0698671
0.070158
0.0739529
0.0662831
0.0723736
0.0746072
0.0656179
0.0668941
0.0733104
0.0722991
0.0730006
0.0762657
0.0762294
0.0810548
0.0816499
0.0816415
0.0899146
0.0777
0.0814639
0.0886243
0.0837726
0.0844351
0.0948605
0.0953496
0.0933869
0.0950697
0.0929178
0.102812
0.107183
0.117492
0.115775
0.112916
0.124028
0.142616
0.146049
0.140375
0.154254
0.176362
0.194325
0.220013
0.249188
0.317112
0.425634
0.523027
0.426944
0.550033
0.33698
0.00414311
0
0
0.0486485
0.0596248
0.0635844
0.0868362
0.107013
0.126333
0.167784
0.220544
0.248478
0.267911
0.311089
0.319004
0.31576
0.325038
0.31196
0.272288
0.240382
0.186443
0.161
0.118198
0.0826178
0.0725623
0.0692992
0.0652386
0.0725333
0.0664858
0.0676037
0.0669584
0.0680502
0.0576202
0.0743254
0.0677638
0.0603124
0.0686477
0.0679008
0.0601747
0.0630553
0.0607574
0.0683572
0.0614262
0.0687515
0.071771
0.0671592
0.0637352
0.0647029
0.0647959
0.0671655
0.0622013
0.0624374
0.0635128
0.0627048
0.0598091
0.063597
0.0594547
0.0640443
0.0642039
0.071643
0.0668511
0.0601413
0.0633549
0.0606142
0.0610756
0.0640283
0.0658958
0.0577689
0.0659332
0.0627884
0.0699629
0.0593787
0.0607082
0.0611809
0.0634121
0.0634089
0.066207
0.0698937
0.0654676
0.0634832
0.0593615
0.0630706
0.0599071
0.0630332
0.0737466
0.0702606
0.057747
0.0624097
0.0659907
0.0678755
0.0656177
0.0643387
0.0614986
0.0711598
0.067042
0.0638048
0.0700527
0.065803
0.0722331
0.0702612
0.0671474
0.0727509
0.0660525
0.0684852
0.0706277
0.0746979
0.0755978
0.0673743
0.0686481
0.0713673
0.072543
0.0744148
0.0789437
0.0757498
0.0729441
0.0811616
0.0774262
0.0720493
0.0729506
0.0789715
0.0768236
0.0805162
0.0807496
0.0812265
0.0881616
0.0896839
0.0878662
0.0970682
0.0835527
0.0912846
0.0939163
0.0879041
0.093207
0.100811
0.0985905
0.103568
0.104816
0.098811
0.11133
0.11492
0.124073
0.127503
0.121791
0.134474
0.150027
0.157852
0.151101
0.166565
0.188397
0.205649
0.237558
0.266673
0.336191
0.468349
0.475692
0.36307
0.552779
0.532381
0.0942973
0
0
