# vtk DataFile Version 2.0
crystal.vtk
ASCII
DATASET STRUCTURED_POINTS
DIMENSIONS 158 10 1
ORIGIN 0 -0.003 0
SPACING 0.000605096 0.000666667 0
POINT_DATA 1580
SCALARS values double 1
LOOKUP_TABLE default
0
0
0
0
0
0.000126404
7.62277e-05
0
7.69503e-05
0
0
0.000335751
3.07629e-05
0.000116978
0
0.000220954
0
0
0
0
5.69636e-05
6.57035e-07
0
2.20026e-05
8.63976e-05
7.20157e-05
0
0
0
0
0
0
0
0
0
0
0
6.72242e-05
0.000240783
6.38883e-06
0.000147108
0.000274191
5.59013e-05
0.000220971
0
0
0
0
0
0
0
0
0
0
0
6.74767e-05
1.37616e-06
0
0
0
0
0
0
0
8.602e-05
0.00023947
0
0.000214681
0
6.20504e-05
2.44702e-05
0
0
0
0
0
0
0
0
0
9.05815e-06
0.000209902
0
0
0
0
0
0
0
0.00022923
7.55752e-05
0
0
0
4.59022e-05
0.000192208
1.07196e-07
0
0
0
0
4.77337e-05
7.63357e-05
0
0
6.96394e-06
0
0.000183914
6.14763e-05
0
0
0
0
0
0
0
0
0
0
0
0
0
0
0
0
0
0
3.73137e-05
0
0
0
0
0
0
0.000240149
0
0
0
0
0
0
0
0
0
0
0.000247474
5.5518e-05
3.63943e-05
9.90005e-08
0
0
0
0
0
0
0
0
0
0
0
0
0
0
0
9.73671e-05
0
3.15172e-05
3.07332e-05
0
0
0.000488883
0
0.00022892
2.19581e-06
0
0
0
3.27843e-05
3.54021e-05
0
0
3.49403e-05
6.94751e-05
9.26357e-06
6.2679e-05
0
0
0
0
0
0
0
0
0
1.65072e-05
9.36703e-05
3.01014e-05
0.000156463
7.12713e-05
0.000280251
3.22335e-05
0.000198141
6.60479e-05
0
0
0
0
0
0
0
0
0
3.73021e-05
4.41625e-05
0
0
0
0
0
0
0
2.01134e-05
1.29889e-05
0.000168397
0.000269012
1.87316e-05
0
0
6.79881e-05
0
0
0
0
0
0
0
0
0
0
0.000101461
6.99111e-05
0
0
0
0
0
0
0
0.000263807
0
0
0
0.000247419
8.41783e-07
0
0
0
0
0
0.000138129
0
0
9.65012e-06
4.95654e-07
0.000138758
0.000121082
3.4041e-06
0
0
0
0
0
0
0
0
0
0
0
0
0
0
0
0
0
4.11833e-05
5.10928e-06
0
0
0
0
0
0
3.00639e-05
0.000134006
0
0
0
0
0
0
0
0
0.000119949
0.000144954
9.35274e-05
3.17934e-06
0
0
0
0
0
0
0
0
0
0
0
0
0
0
0
0
4.0262e-06
4.27599e-05
0
5.03587e-05
0
8.74033e-05
0.000233576
0.000282727
0.000132634
0
0
0
0
8.06895e-05
0
0
1.14577e-05
3.91649e-05
0
6.06114e-05
4.06814e-05
2.12463e-05
0
0
0
0
0
0
0
0
0.000123387
0
3.41775e-05
0.000134373
6.69988e-05
0
0.000292446
0
0.000252086
0
0
0
0
0
0
0
0
0
9.63866e-05
0
0
0
0
0
0
0
1.40287e-06
4.24116e-05
0
0.00010794
0.000305349
0
0
0
1.64085e-05
3.70167e-05
0
0
0
0
0
0
0
0
0
0
0.000134126
0
0
0
0
0
0
0
6.66087e-05
0.000161714
0
0.000166039
9.31503e-05
0
0
0
0
0
0.000129207
2.45742e-05
0
6.82836e-06
7.95303e-06
5.85805e-05
0.000191663
3.29961e-05
0
0
0
0
0
0
0
0
0
0
0
0
0
0
0
0
0
2.15421e-05
3.589e-05
0
0
0
0
0
0
0
0
8.12866e-05
3.08058e-05
0
0
0
0
0
0
0
0.000263981
0.000112968
9.9145e-06
0
0
0
0
0
0
0
0
0
0
0
0
0
0
0
0
0
0
1.52009e-05
7.28036e-06
3.00496e-06
4.83357e-05
0.000142683
0
0.000600221
0
0
0
0
8.95003e-05
5.98501e-06
0
0
5.53247e-05
0
0
2.96397e-05
2.84372e-05
5.74267e-05
0
0
0
0
0
0
0
8.67869e-05
5.1394e-05
8.64438e-06
5.38425e-05
9.86705e-05
7.0179e-05
0
0.000122368
0.000151326
7.16432e-05
0.000168895
0
0
0
0
0
0
0
0.000103056
1.0986e-05
0
0
0
0
0
0
0
5.79932e-05
0
0
0.00023077
6.37085e-05
8.80316e-05
0
0
0
3.7183e-05
4.79878e-06
0
0
0
0
0
0
0
0
0
1.0224e-05
9.47518e-05
0
0
0
0
0
0
0
0.000163354
5.97488e-05
0.000245084
8.82962e-07
0
0
0
0
5.21678e-05
0.00011904
0
0
2.1535e-05
0
0.000202035
0.000103712
0
0
0
0
0
0
0
0
0
0
0
0
0
0
0
0
0
0
7.12523e-05
0
0
0
0
0
0
0
0
0
0
7.65814e-05
0
0
0
0
0
0
0.000251358
9.4961e-05
6.87944e-05
1.0903e-06
0
0
0
0
0
0
0
0
0
0
0
0
0
0
0
0
0
0
0
1.08025e-05
0
0.000183111
1.062e-05
0.00023891
4.12751e-05
0.000330576
0
0
4.79956e-05
6.49985e-05
0
0
4.23743e-05
1.80894e-05
0
0
0
5.56484e-05
1.3008e-05
4.02448e-05
0
0
0
0
0
1.41113e-05
0.000140637
0
7.71348e-05
0.000112216
3.88188e-06
1.28197e-05
3.59102e-05
0
0.000252208
3.93465e-06
0.000193601
3.59178e-05
0
0
0
0
0
5.05009e-05
8.44299e-05
0
0
0
0
0
0
0
3.97193e-05
3.7041e-05
0
0.000203965
3.24321e-05
0
0.000100573
2.37901e-05
0
0
0
3.29894e-05
0
0
0
0
0
0
0
0
0
0
5.26904e-05
2.94702e-05
0
0
0
0
0
0
0
0.000450974
5.96268e-06
0
0
0
0
0
0.000190608
0
0
2.84847e-05
2.8897e-06
0.000154028
0.000167519
9.6614e-06
0
0
0
0
0
0
0
0
0
0
0
0
0
0
0
0
0
7.40397e-05
1.43584e-05
0
0
0
0
0
0
0
0
0
0
1.28913e-05
3.94291e-05
0
0
0
0
0.000107013
0.000179528
0.000150813
1.36834e-05
0
0
0
0
0
0
0
0
0
0
0
0
0
0
0
0
0
0
0
0
8.30706e-07
9.69216e-05
7.60679e-05
0.0001268
0.000176516
0
0.000203497
0.000141687
0
0.000133714
0
0
1.12514e-05
5.48285e-05
0
0
0
0
5.06856e-06
4.82529e-05
4.10765e-05
8.30575e-06
0
0
0
0
0.000173302
0
5.96367e-05
9.77581e-05
7.44243e-05
0
0
2.66566e-05
7.17977e-06
0
0.000239718
0
0.000219005
0
0
0
0
0
0.000159646
0
0
0
0
0
0
0
0
0.000101601
0
8.1804e-05
0.000160358
0
0
2.7937e-05
7.56769e-05
0
0
0
1.27837e-05
1.31395e-05
0
0
0
0
0
0
0
0
0
0
6.43041e-05
0
0
0
0
0
0
0.000158931
0.000200138
9.30418e-05
0
0
0
0
0.000162133
5.0074e-05
0
1.87066e-05
2.70028e-05
5.87673e-05
0.000226821
7.45671e-05
0
0
0
0
0
0
0
0
0
0
0
0
0
0
0
0
0
3.47379e-05
7.49318e-05
0
0
0
0
0
0
0
0
0
0
0
0
2.77675e-05
7.97771e-06
0
0
0
0.000290828
0.000164359
3.82768e-05
0
0
0
0
0
0
0
0
0
0
0
0
0
0
0
0
0
0
0
0
0
3.31865e-06
0.000175362
6.82418e-07
0.000295006
1.59406e-05
0
0
0.000344102
0.000140124
1.81078e-05
0
0
7.22178e-05
0
0
0
0
0
0
3.50536e-05
1.60382e-05
4.57931e-05
0
0
0
0.000111108
8.29723e-05
9.84811e-06
0.000107688
0.00016073
0
0
0
0
2.34948e-05
0
0.000120603
0.000103743
8.22018e-05
0.00012677
0
0
0
0.000156071
3.2818e-05
0
0
0
0
0
0
0
0.000127057
7.42226e-06
0
0.000248066
0
0
0
0
5.48531e-05
3.29518e-05
0
0
0
2.03705e-05
0
0
0
0
0
0
0
0
0
0
7.68672e-06
4.26417e-05
0
0
0
0
0
0.000321888
6.99347e-06
0.000115355
1.27614e-05
0
0
5.29206e-05
0.000183334
0
0
6.65941e-05
0
0.000222967
0.000170261
0
0
0
0
0
0
0
0
0
0
0
0
0
0
0
0
0
0
0.00013606
0
0
0
0
0
0
0
0
0
0
0
0
0
0
2.44211e-05
0
0
0.000250501
0.000146663
0.000142481
7.01288e-06
0
0
0
0
0
0
0
0
0
0
0
0
0
0
0
0
0
0
0
0
0
0.00018551
0
0.000248103
5.57822e-05
1.47083e-05
2.73933e-06
0
0.000114644
0.000415626
0
0
5.10698e-05
2.7856e-05
0
0
0
0
0
0
0
4.89554e-05
1.80334e-05
2.44314e-05
0
6.99429e-06
0.000210355
0
0.000145089
0.000172703
1.64148e-05
0
0
0
0
5.19302e-06
1.11209e-05
0
0.00020996
0
0.000186758
1.2641e-05
0
6.46965e-05
0.000158791
0
0
0
0
0
0
0
7.56391e-05
0.000102359
0
0.000206017
4.80977e-05
0
0
0
0
8.022e-06
5.95343e-05
8.12607e-06
0
0
9.57934e-07
1.50493e-05
0
0
0
0
0
0
0
0
0
0
2.71778e-05
1.22124e-05
0
0
0
0.000322798
4.28777e-05
0
0
0.000110884
0
0
0.000263026
0
0
8.38077e-05
1.32133e-05
0.000170309
0.000237236
2.36503e-05
0
0
0
0
0
0
0
0
0
0
0
0
0
0
0
0
0
0.000132488
3.63129e-05
0
0
0
0
0
0
0
0
0
0
0
0
0
0
5.14221e-06
1.15423e-05
9.01255e-05
0.000220102
0.000246827
5.84059e-05
0
0
0
0
0
0
0
0
0
0
0
0
0
0
0
0
0
0
0
0
0
9.72156e-05
9.73583e-05
8.61886e-05
0.000230552
4.42838e-07
0
1.41146e-05
0
0.000221582
0.000231597
0.00011035
9.82729e-06
7.64297e-05
0
0
0
0
0
0
0
0
1.28487e-05
3.40596e-05
3.93784e-05
0
0.000243408
0
0.000103335
0.000164111
0.000134174
0
0
0
0
0
0
9.44082e-06
1.88704e-06
1.50974e-05
0.000181399
0
0.000190265
0
0.000264424
0
0
0
0
0
0
0
0
0.0002356
0
7.42044e-05
0.000186107
0
0
0
0
0
0
3.4062e-05
3.22514e-05
0
0
0
8.44282e-06
4.13568e-06
0
0
0
0
0
0
0
0
0
0
3.08292e-05
0
0
0.000147373
0.000277126
0
0
0
4.32136e-05
5.27555e-05
0.00020124
9.15919e-05
0
5.02534e-05
9.10966e-05
5.71323e-05
0.00027292
0.00014493
0
0
0
0
0
0
0
0
0
0
0
0
0
0
0
0
0
5.39674e-05
0.000155452
0
0
0
0
0
0
0
0
0
0
0
0
0
0
0
0
9.43096e-06
0.000322374
0.000233745
0.000153158
0
0
0
0
0
0
0
0
0
0
0
0
0
0
0
0
0
0
0
0
0
0
0.000204081
0
0.000331168
0
2.14355e-07
6.23682e-08
5.03845e-06
0.000224886
4.3706e-05
0
0.000340876
9.42691e-05
0
0
0
0
0
0
0
0
0
0
3.86771e-05
6.44154e-06
0.000177151
0.000131786
6.33535e-06
0.000214748
0.000261821
0
0
0
0
0
0
0
0
7.86567e-06
0
0.000115397
6.8499e-05
8.86784e-05
0.000326816
7.89126e-05
0
0
0
0
0
0
0
0.000269235
4.26072e-05
0
0.000266658
0
0
0
0
0
0
0
0
4.65103e-05
1.24935e-05
0
0
0
9.88422e-06
0
0
0
0
0
0
0
0
0
0
5.00404e-06
1.91248e-05
0
0.000470162
5.39058e-05
0
0
0
0
0.000127337
0.000281739
0
0
0.000205933
0
0.000247264
0.000278444
0
0
0
0
0
0
0
0
0
0
0
0
0
0
0
0
0
0
0.000259813
0
0
0
0
0
0
0
0
0
0
0
0
0
0
0
0
0
0.000246787
0.000217509
0.000339023
3.81746e-05
0
0
0
0
0
0
0
0
0
0
0
0
0
0
0
