# vtk DataFile Version 2.0
crystal.vtk
ASCII
DATASET STRUCTURED_POINTS
DIMENSIONS 158 10 1
ORIGIN -0.2647 -0.003 0
SPACING 0.000605096 0.000666667 0
POINT_DATA 1580
SCALARS values double 1
LOOKUP_TABLE default
0.0076721
0.01611
0.0193638
0.0199375
0.0290213
0.0350608
0.0415146
0.0508589
0.0555412
0.0615911
0.0652298
0.0674443
0.0782001
0.087519
0.094769
0.103543
0.10192
0.112128
0.112093
0.131205
0.130316
0.13045
0.131394
0.132886
0.138011
0.134452
0.142684
0.151581
0.146622
0.133408
0.144445
0.141999
0.142564
0.147623
0.137017
0.13629
0.146268
0.151197
0.139406
0.143622
0.154509
0.136937
0.138878
0.140244
0.140563
0.138227
0.139724
0.136318
0.136101
0.137629
0.139538
0.127429
0.131592
0.131509
0.133519
0.132807
0.139231
0.138151
0.126502
0.13864
0.133166
0.131209
0.142837
0.137442
0.131237
0.136112
0.134165
0.130737
0.126137
0.133024
0.131891
0.128234
0.133547
0.130818
0.12346
0.132541
0.133466
0.132386
0.130942
0.135189
0.136949
0.13132
0.126081
0.139046
0.129595
0.128499
0.132441
0.130591
0.134774
0.140311
0.129962
0.129501
0.142161
0.132971
0.139704
0.131886
0.139271
0.13747
0.1347
0.135657
0.140748
0.139371
0.139403
0.133569
0.126465
0.139967
0.149802
0.134445
0.137615
0.149903
0.150225
0.14402
0.149446
0.151785
0.146734
0.154364
0.156644
0.160254
0.150333
0.16126
0.166862
0.175457
0.159819
0.175109
0.180223
0.186863
0.200228
0.210128
0.225808
0.236501
0.278108
0.299436
0.289385
0.245755
0.262287
0.28777
0.245253
0.193271
0.129094
0.129997
0.130604
0.133725
0.137999
0.127886
0.12771
0.132357
0.137662
0.114789
0.115976
0.0954212
0.0839729
0.0612401
0.0501623
0.0151315
1.44428e-05
0.000220901
3.06873e-05
0.000234753
0.00478112
0.0120222
0.0199744
0.0171662
0.0253165
0.0308928
0.0391859
0.0452907
0.0504714
0.0561889
0.0569812
0.0664111
0.0710266
0.0783204
0.0886035
0.0974269
0.0913749
0.104583
0.103929
0.121024
0.125371
0.114711
0.130529
0.117491
0.131141
0.123592
0.137711
0.138906
0.141462
0.121061
0.139876
0.132119
0.136484
0.132801
0.1317
0.13238
0.133386
0.13788
0.130827
0.13596
0.145365
0.12936
0.130454
0.130132
0.133779
0.129873
0.131006
0.13109
0.127984
0.12818
0.127624
0.124297
0.126981
0.118349
0.125611
0.12662
0.125924
0.130404
0.127421
0.125713
0.124418
0.123008
0.131805
0.132056
0.126101
0.128433
0.122699
0.126459
0.120583
0.124709
0.123502
0.122433
0.121001
0.125218
0.120208
0.120019
0.127909
0.121079
0.127735
0.124592
0.12895
0.126221
0.116668
0.132231
0.124289
0.120048
0.121684
0.128121
0.119612
0.134301
0.125043
0.123648
0.132387
0.128006
0.130265
0.121203
0.131543
0.129195
0.131686
0.125472
0.131316
0.133988
0.130003
0.126035
0.122671
0.133922
0.137631
0.12838
0.129131
0.137218
0.145271
0.13794
0.142279
0.140852
0.136326
0.147301
0.149948
0.147506
0.144529
0.152637
0.16273
0.161948
0.151337
0.165617
0.172889
0.17728
0.183197
0.201621
0.209776
0.225289
0.259962
0.301821
0.291463
0.277146
0.286146
0.251529
0.214042
0.140911
0.109154
0.121199
0.122429
0.12384
0.132018
0.114575
0.119799
0.126176
0.128903
0.106885
0.112129
0.0903197
0.0776088
0.0575531
0.0464141
0.0139654
0
0
0.000236088
9.3923e-05
0.00342657
0.0100831
0.017787
0.0172165
0.0224489
0.0284432
0.038225
0.0406309
0.0458172
0.0540768
0.0539733
0.0617478
0.0687804
0.0723396
0.0831879
0.092193
0.0873686
0.0973157
0.101978
0.113758
0.119619
0.109133
0.12338
0.113587
0.122054
0.118084
0.134392
0.130859
0.138176
0.118361
0.134425
0.12655
0.128982
0.12433
0.125617
0.130548
0.124222
0.131016
0.126771
0.132049
0.137846
0.124155
0.12471
0.124507
0.12702
0.125696
0.12678
0.123955
0.1224
0.12486
0.121143
0.12239
0.121872
0.114379
0.116774
0.120164
0.119994
0.128041
0.122256
0.118757
0.11822
0.122077
0.124732
0.128281
0.118911
0.124837
0.116559
0.122602
0.114119
0.120872
0.115066
0.118158
0.119735
0.118563
0.11541
0.113924
0.123275
0.117914
0.122338
0.120397
0.12389
0.119613
0.112539
0.12561
0.124893
0.115893
0.112162
0.123411
0.114692
0.126079
0.12374
0.116815
0.126203
0.124617
0.124535
0.121147
0.122711
0.126615
0.125517
0.119558
0.124721
0.128045
0.128477
0.11724
0.123159
0.129009
0.128225
0.127122
0.121821
0.13341
0.138754
0.132042
0.134021
0.13767
0.131884
0.138917
0.147682
0.137341
0.142024
0.145556
0.164503
0.149636
0.148851
0.154784
0.1721
0.167059
0.174762
0.193218
0.196336
0.220593
0.25139
0.290929
0.310871
0.31487
0.294494
0.219356
0.179323
0.109427
0.10037
0.114428
0.110523
0.123337
0.124725
0.111343
0.115347
0.124578
0.118508
0.104576
0.105529
0.0889147
0.0739085
0.0548191
0.0442151
0.0130514
9.86346e-05
0
9.03967e-05
0.000131146
0.001742
0.00932377
0.0164867
0.0174344
0.0208662
0.0275142
0.0372398
0.0385777
0.0431805
0.0502043
0.0529581
0.0601669
0.0681655
0.0666731
0.0810638
0.0866595
0.0855936
0.0938176
0.100521
0.108205
0.115356
0.108941
0.118866
0.112959
0.113279
0.117986
0.131592
0.128677
0.128802
0.123504
0.128359
0.124166
0.124017
0.117179
0.123463
0.128943
0.119424
0.126881
0.124884
0.131199
0.125903
0.127914
0.116248
0.124305
0.121981
0.125046
0.123558
0.117312
0.122245
0.119929
0.118286
0.122469
0.116209
0.109824
0.112851
0.118183
0.119256
0.121609
0.119812
0.115643
0.115342
0.123364
0.119735
0.121646
0.116067
0.124991
0.111032
0.120991
0.114449
0.111899
0.112357
0.116772
0.118591
0.113536
0.112931
0.111569
0.116664
0.117425
0.116079
0.12042
0.119506
0.114847
0.112397
0.123637
0.11994
0.11514
0.109652
0.118324
0.115763
0.117993
0.120975
0.118256
0.118478
0.12292
0.122012
0.119923
0.115209
0.127535
0.120755
0.116295
0.122584
0.125346
0.122811
0.113929
0.123004
0.128627
0.1226
0.122212
0.118033
0.129181
0.137722
0.12904
0.132721
0.127221
0.133644
0.136385
0.143856
0.130658
0.140911
0.146645
0.159786
0.142198
0.147536
0.150067
0.169831
0.161242
0.172388
0.187989
0.19219
0.212095
0.247364
0.277593
0.318625
0.355795
0.300019
0.203103
0.132196
0.101201
0.0979081
0.110083
0.106447
0.117965
0.118439
0.113113
0.112691
0.119113
0.114105
0.105659
0.100754
0.0871812
0.0723549
0.0525201
0.0435211
0.0125514
9.97052e-05
1.85947e-05
0
0.000192999
0.000160269
0.00928224
0.0149749
0.0182365
0.0214346
0.0274306
0.0344392
0.0379291
0.043068
0.0483653
0.0512974
0.0609002
0.0660663
0.068661
0.0760376
0.0836885
0.08771
0.0904415
0.100468
0.103324
0.113179
0.10947
0.120038
0.108816
0.111067
0.120556
0.12746
0.128453
0.124267
0.125097
0.123314
0.124709
0.119109
0.115363
0.127639
0.124354
0.120736
0.12218
0.126562
0.127693
0.122279
0.125048
0.114203
0.123649
0.120193
0.125825
0.120849
0.116659
0.121582
0.117449
0.116534
0.119823
0.116244
0.109261
0.108618
0.118402
0.116938
0.119463
0.118053
0.116796
0.112852
0.121922
0.1177
0.113464
0.120072
0.125748
0.107502
0.118454
0.115544
0.110798
0.110307
0.117389
0.116894
0.106456
0.115233
0.111196
0.113273
0.117581
0.111783
0.124216
0.112839
0.114082
0.115508
0.120214
0.11644
0.115896
0.105749
0.115114
0.11825
0.110628
0.123846
0.116614
0.117702
0.120488
0.120896
0.118027
0.113221
0.127295
0.119315
0.115028
0.122106
0.123396
0.117416
0.115525
0.124176
0.125421
0.120722
0.120427
0.118393
0.12466
0.134667
0.130026
0.131977
0.124871
0.13289
0.133926
0.138915
0.13274
0.139125
0.148446
0.150862
0.143768
0.146959
0.148878
0.163982
0.163133
0.17347
0.179181
0.191145
0.212043
0.240167
0.271902
0.332103
0.370585
0.301703
0.196949
0.105471
0.0975809
0.0976892
0.104169
0.107198
0.117593
0.11327
0.112911
0.114163
0.116689
0.111121
0.105307
0.099716
0.0849473
0.0722738
0.0515748
0.0427131
0.0126036
0
9.56813e-05
0
0
0.000130603
0.00976352
0.0134265
0.0200333
0.0204412
0.0293532
0.032338
0.0381931
0.0443152
0.0465283
0.0529963
0.0602056
0.0667884
0.0705428
0.0743596
0.0815397
0.08974
0.0874786
0.103248
0.104006
0.111536
0.111895
0.114082
0.115505
0.106235
0.125651
0.123302
0.129043
0.11935
0.130631
0.121681
0.127142
0.11687
0.118536
0.125907
0.124276
0.123279
0.119645
0.123012
0.130442
0.120866
0.125249
0.115912
0.12399
0.117548
0.129692
0.11942
0.115254
0.121328
0.117816
0.117862
0.117
0.120427
0.110801
0.108341
0.113801
0.118712
0.12012
0.118483
0.115771
0.112463
0.120254
0.11964
0.111451
0.122646
0.123465
0.108302
0.116312
0.118526
0.109495
0.10873
0.117452
0.119128
0.108163
0.111316
0.113801
0.111273
0.118554
0.112957
0.123611
0.11248
0.114068
0.117417
0.11721
0.116883
0.118659
0.104647
0.113267
0.118486
0.109131
0.122724
0.118946
0.117079
0.121496
0.121378
0.114969
0.119083
0.126928
0.115725
0.117194
0.118214
0.125302
0.117395
0.115705
0.126392
0.124214
0.119173
0.119235
0.122055
0.124985
0.131716
0.12911
0.131434
0.125408
0.133847
0.136855
0.131697
0.136154
0.138661
0.152809
0.144303
0.147649
0.144514
0.154846
0.154199
0.168209
0.178336
0.168674
0.194277
0.2188
0.236577
0.273479
0.340236
0.359144
0.301668
0.203421
0.10282
0.0969934
0.0977402
0.102213
0.10872
0.117845
0.108643
0.117969
0.11184
0.116223
0.11026
0.106269
0.10015
0.0852677
0.071718
0.0505848
0.0431401
0.0126686
9.15729e-05
2.92263e-05
4.81611e-05
0
0.00126215
0.00995092
0.0135379
0.0216268
0.0205688
0.031007
0.0320701
0.03691
0.0466853
0.0477891
0.053215
0.0612216
0.0695226
0.0726921
0.0746288
0.08026
0.0929918
0.0898515
0.105421
0.10639
0.111457
0.113219
0.113286
0.118152
0.109135
0.127281
0.123402
0.127932
0.123815
0.13544
0.121026
0.129026
0.122124
0.116616
0.128131
0.122442
0.128727
0.116224
0.129704
0.130049
0.123216
0.123678
0.121247
0.122915
0.120229
0.131896
0.120548
0.116842
0.12202
0.119873
0.121938
0.116906
0.122706
0.112262
0.110355
0.113248
0.121585
0.118811
0.119184
0.119227
0.115994
0.121776
0.118711
0.114822
0.12393
0.122145
0.112403
0.115752
0.120216
0.111748
0.11055
0.117475
0.120104
0.111751
0.11172
0.11329
0.114566
0.117707
0.116826
0.121146
0.113908
0.115446
0.123012
0.114826
0.117981
0.122019
0.107701
0.114137
0.120822
0.111369
0.122562
0.11835
0.122626
0.117485
0.12332
0.118123
0.124268
0.122706
0.117803
0.120743
0.11898
0.125272
0.119248
0.117022
0.131216
0.122064
0.119582
0.119681
0.125147
0.130171
0.127796
0.131174
0.132628
0.130037
0.134754
0.137846
0.129223
0.141567
0.142966
0.153484
0.145785
0.147265
0.145527
0.159912
0.153982
0.17309
0.17773
0.171116
0.197445
0.220814
0.239533
0.287378
0.330369
0.342041
0.299131
0.203086
0.130753
0.0992762
0.102212
0.0976216
0.112211
0.120041
0.11008
0.118291
0.114094
0.116761
0.112043
0.108736
0.100194
0.0857124
0.0740545
0.0509317
0.0430784
0.0130869
0.000217862
0
5.56653e-05
6.9258e-06
0.00349656
0.00929737
0.0160635
0.0209858
0.023101
0.0316962
0.0326172
0.0416184
0.0460987
0.0480373
0.0566193
0.0664636
0.0690663
0.0762975
0.0766873
0.0829916
0.0942907
0.0965963
0.107808
0.109006
0.114701
0.116312
0.118144
0.119142
0.116997
0.12814
0.13003
0.126775
0.131903
0.136055
0.124867
0.13188
0.122441
0.123198
0.130928
0.127089
0.130282
0.122329
0.134411
0.132985
0.123845
0.123692
0.126569
0.125535
0.125724
0.13271
0.125712
0.121956
0.119884
0.127856
0.125513
0.120848
0.122343
0.116131
0.113551
0.115746
0.12716
0.120429
0.120307
0.125199
0.120267
0.123438
0.117741
0.123591
0.122843
0.125162
0.118495
0.117398
0.120253
0.116618
0.117818
0.118608
0.120975
0.117994
0.109843
0.117382
0.119104
0.117941
0.123992
0.11782
0.120632
0.11627
0.128611
0.119145
0.118629
0.12442
0.113105
0.113869
0.121906
0.118207
0.121973
0.123799
0.125924
0.118934
0.124442
0.125492
0.12477
0.126756
0.118752
0.125923
0.121182
0.126252
0.120433
0.1283
0.132402
0.124146
0.120787
0.123513
0.126712
0.135351
0.128731
0.134567
0.134968
0.133159
0.140597
0.139433
0.129584
0.145854
0.154468
0.151977
0.147099
0.150462
0.152034
0.161966
0.157366
0.181836
0.175267
0.182023
0.20307
0.224459
0.251692
0.29601
0.315551
0.311441
0.281797
0.228553
0.172954
0.109807
0.104216
0.101538
0.117837
0.118406
0.114383
0.11816
0.122429
0.117719
0.114017
0.113789
0.0990521
0.0880496
0.0781186
0.0520143
0.0440083
0.0136871
3.36954e-05
0.000185038
0
7.84734e-05
0.00592042
0.00881022
0.018186
0.0232225
0.0266812
0.0328514
0.0361476
0.0433654
0.048501
0.0510289
0.0633326
0.0669116
0.0762319
0.0784376
0.0822759
0.0854958
0.0982326
0.106528
0.109377
0.116458
0.117417
0.1255
0.122293
0.12498
0.122613
0.134335
0.138637
0.131059
0.136256
0.138073
0.136371
0.131157
0.130581
0.134696
0.131022
0.13505
0.131282
0.132939
0.141562
0.134163
0.12663
0.130011
0.132545
0.129981
0.135238
0.135396
0.133554
0.127309
0.124243
0.1308
0.133141
0.12491
0.126608
0.124056
0.118872
0.120789
0.131937
0.126856
0.124952
0.128195
0.129151
0.1244
0.121842
0.130233
0.125971
0.129645
0.124364
0.124102
0.12426
0.12097
0.125166
0.124
0.122888
0.120153
0.119759
0.120537
0.12439
0.121216
0.1304
0.122397
0.124201
0.123418
0.130877
0.127094
0.12069
0.129177
0.121052
0.115605
0.125908
0.126579
0.121554
0.131846
0.132766
0.121665
0.12755
0.133569
0.13032
0.129527
0.126368
0.125704
0.132049
0.128383
0.125169
0.135719
0.132417
0.128762
0.128863
0.127274
0.132974
0.139501
0.13197
0.141601
0.136441
0.141371
0.145819
0.141533
0.14094
0.149348
0.16341
0.151759
0.153852
0.155685
0.16243
0.160277
0.171673
0.18913
0.172488
0.199632
0.211678
0.234095
0.269818
0.295201
0.302017
0.278712
0.272247
0.251526
0.210142
0.139847
0.111482
0.108087
0.124438
0.118843
0.12212
0.122827
0.129385
0.122449
0.118553
0.118897
0.101659
0.0921722
0.0813168
0.0549667
0.045623
0.014791
2.78404e-05
0.00013116
7.12896e-05
0.000370756
0.00953878
0.0102169
0.0193827
0.025853
0.0339319
0.0321267
0.0407751
0.0475292
0.0526408
0.0593334
0.0687464
0.0719535
0.0832479
0.0840982
0.0868065
0.0928224
0.104551
0.119898
0.118937
0.124161
0.121735
0.133264
0.132848
0.133516
0.13629
0.137496
0.14917
0.136143
0.148385
0.142152
0.15103
0.137586
0.139041
0.143258
0.140876
0.141054
0.137391
0.146843
0.148544
0.137403
0.136564
0.138805
0.141635
0.137156
0.148518
0.140995
0.143083
0.135029
0.131281
0.14021
0.13674
0.136407
0.137611
0.133524
0.124531
0.130621
0.133176
0.137447
0.134369
0.136933
0.140727
0.127614
0.128511
0.140617
0.133665
0.138136
0.129552
0.131999
0.129236
0.132641
0.131924
0.12982
0.127109
0.128011
0.129599
0.127944
0.1306
0.129609
0.137959
0.127779
0.129357
0.133982
0.137296
0.132462
0.132733
0.132253
0.130349
0.125313
0.134713
0.136408
0.125483
0.142483
0.136238
0.127338
0.135605
0.143424
0.139062
0.134604
0.133439
0.131574
0.139235
0.1357
0.133965
0.146325
0.136151
0.137537
0.135008
0.135044
0.144191
0.141536
0.14184
0.148492
0.145042
0.152211
0.156622
0.146939
0.150837
0.16203
0.170826
0.155255
0.165394
0.162661
0.174833
0.167343
0.185883
0.191143
0.187518
0.210455
0.226824
0.250778
0.290316
0.290273
0.28617
0.253962
0.258216
0.274806
0.247343
0.197771
0.12168
0.120547
0.131489
0.121592
0.134333
0.134359
0.136499
0.126864
0.127762
0.125418
0.107211
0.0974307
0.0852619
0.0601387
0.0486288
0.0162035
7.70815e-06
1.6267e-05
0.0003811
0.000226233
