# vtk DataFile Version 2.0
crystal.vtk
ASCII
DATASET STRUCTURED_POINTS
DIMENSIONS 158 10 1
ORIGIN 0 -0.003 0
SPACING 0.000605096 0.000666667 0
POINT_DATA 1580
SCALARS values double 1
LOOKUP_TABLE default
0.0316166
0.0455179
0.0485479
0.0562297
0.0514681
0.0571896
0.0511133
0.0525692
0.0550241
0.053931
0.055506
0.0553326
0.0552543
0.0555989
0.0550989
0.0518001
0.0532166
0.0580845
0.0536749
0.0580905
0.0560268
0.058816
0.0554258
0.0577515
0.0556989
0.0588015
0.0584358
0.0532947
0.0542384
0.0590784
0.0549902
0.0563611
0.0567785
0.0524059
0.0602657
0.0525977
0.0566269
0.0550019
0.0592934
0.0646292
0.0512071
0.0593813
0.0501436
0.0586893
0.0566985
0.0542909
0.0593872
0.0552415
0.0553081
0.051488
0.0563318
0.0559717
0.0531484
0.0594116
0.0629715
0.0596893
0.0653955
0.0579652
0.0608446
0.0597321
0.059366
0.0546922
0.0601529
0.062445
0.0605721
0.0590446
0.0583803
0.0613144
0.0528361
0.0629227
0.0623951
0.0592923
0.0610228
0.0656567
0.0621666
0.0555939
0.0567301
0.0573897
0.0621425
0.0589103
0.0633443
0.0622557
0.0604828
0.0579387
0.0617213
0.0647426
0.0614904
0.0614145
0.0627981
0.0693602
0.060856
0.0630224
0.0614347
0.0679908
0.0644429
0.0673463
0.0594575
0.0643799
0.0650548
0.061568
0.0701672
0.0628904
0.0700532
0.0637159
0.0672215
0.061285
0.0665417
0.0648099
0.0694446
0.0714962
0.0673107
0.0720445
0.0678435
0.0685465
0.0656421
0.0735955
0.0702026
0.075021
0.0728025
0.0696997
0.0667251
0.0721278
0.07124
0.066609
0.0691427
0.077876
0.0875383
0.0722866
0.0725328
0.0745349
0.0754075
0.0772413
0.0777318
0.0727934
0.0781606
0.0735706
0.071555
0.0774916
0.0771205
0.077586
0.081742
0.0895883
0.0799682
0.0780369
0.0796497
0.0804823
0.0809347
0.0810884
0.0806664
0.0782379
0.0731807
0.0766844
0.0849445
0.0719777
0.0864247
0.0881746
0.0757356
0.0555063
0.01987
0.0391444
0.0485618
0.0514972
0.0475721
0.0506885
0.0476158
0.0500056
0.0487868
0.0502253
0.0507162
0.0526903
0.0509884
0.0526686
0.0516862
0.0453828
0.0511719
0.0544869
0.0513176
0.0487615
0.0543407
0.0537371
0.053291
0.0525937
0.0506474
0.054227
0.055733
0.048627
0.0475522
0.0545868
0.0522731
0.0526309
0.0542349
0.0479873
0.0524649
0.0524666
0.0514074
0.0536268
0.052866
0.0603187
0.0456054
0.0545698
0.0466551
0.053323
0.0546546
0.0493098
0.058317
0.0496371
0.0506693
0.0479488
0.0538646
0.0496343
0.050535
0.0562236
0.0569046
0.0568559
0.0568812
0.0554024
0.0554871
0.0540461
0.0540226
0.0515487
0.0529233
0.0606706
0.0550323
0.0550939
0.0552047
0.0560021
0.0509332
0.0555702
0.0582992
0.0550965
0.0561697
0.060976
0.0570487
0.051978
0.0538522
0.0542344
0.0566297
0.0545723
0.0613415
0.055463
0.056919
0.0544685
0.0561258
0.0596441
0.0581594
0.0566006
0.0580161
0.0599759
0.0610822
0.0575158
0.0557902
0.0612402
0.062955
0.0598974
0.0553696
0.0583854
0.0614282
0.0563156
0.0648392
0.0586958
0.0622982
0.0611036
0.0609003
0.0570598
0.0634767
0.0590954
0.0630636
0.0633105
0.0649049
0.0673622
0.0629861
0.0633043
0.0622735
0.0668185
0.067802
0.0669177
0.0681724
0.0636255
0.063978
0.0667123
0.0637663
0.0633009
0.0633012
0.0724962
0.0781512
0.0689883
0.0694474
0.0689245
0.0691497
0.0730447
0.0728522
0.0676006
0.0724993
0.0682012
0.0665105
0.0727448
0.0701927
0.0724855
0.0756638
0.0828395
0.0748283
0.0723646
0.0746234
0.0754756
0.0760136
0.0761372
0.074743
0.0734756
0.0660287
0.0715736
0.0767543
0.0699654
0.0809443
0.0809295
0.0725145
0.0433618
0.0111152
0.0344224
0.0479573
0.0482854
0.0474532
0.0475961
0.0439556
0.0485986
0.0450333
0.0488495
0.046072
0.0531019
0.0461875
0.0524149
0.0467901
0.0437767
0.0498271
0.0515656
0.0484074
0.0446254
0.0505615
0.0516014
0.0480804
0.0517834
0.0491725
0.0512564
0.053296
0.0448784
0.0462545
0.051082
0.0491613
0.0512298
0.0496466
0.0473257
0.0464311
0.0509656
0.0523161
0.051218
0.0500094
0.0537643
0.0451423
0.0499118
0.0469025
0.0500981
0.0504629
0.0464573
0.0545774
0.050286
0.0477261
0.0457712
0.0505453
0.0463081
0.0488498
0.0538489
0.0523498
0.0552797
0.0523236
0.0534553
0.0495654
0.0526964
0.052016
0.0501728
0.0475695
0.0570222
0.0519644
0.0524624
0.0543896
0.0515408
0.0503847
0.0516086
0.0524733
0.0533211
0.0557066
0.0565159
0.053941
0.0504429
0.0516179
0.0525804
0.0520723
0.0526647
0.0594434
0.0511486
0.0543695
0.0522881
0.0531403
0.0560179
0.0552176
0.0530748
0.053585
0.0560607
0.0610241
0.0526094
0.0526593
0.0582072
0.0613491
0.0520815
0.0548868
0.0574421
0.0557633
0.0552234
0.0591167
0.0576363
0.0572783
0.0583971
0.0570675
0.0565802
0.0600688
0.055135
0.0589804
0.0595379
0.062934
0.0613724
0.0635965
0.0585065
0.0598326
0.0598717
0.0670713
0.064524
0.0636093
0.0605277
0.0615945
0.0619159
0.0612574
0.0599543
0.0598659
0.0684742
0.0724655
0.0670292
0.0677723
0.0639609
0.0666148
0.0687552
0.069234
0.0646489
0.0691215
0.0663475
0.0613139
0.0705562
0.0653062
0.0689302
0.0723758
0.0784007
0.0713296
0.0691959
0.0712944
0.0717911
0.0729883
0.0729756
0.0705088
0.0700065
0.0619454
0.0680028
0.0719784
0.0682426
0.076267
0.0767084
0.0712464
0.0350264
0.00363204
0.0347348
0.0486691
0.0442021
0.0470302
0.0447898
0.0455068
0.0459266
0.0438566
0.0461835
0.0441373
0.0512315
0.0461358
0.049698
0.0458234
0.0416595
0.0491762
0.0495924
0.0462164
0.0427746
0.0481357
0.0486749
0.0474046
0.0495938
0.0493393
0.0507118
0.0508087
0.043764
0.0457488
0.0462306
0.0490024
0.0480182
0.0486064
0.0461431
0.0428096
0.0531862
0.0493878
0.0523876
0.0467796
0.0487839
0.0477116
0.0441162
0.0470024
0.0487167
0.0476425
0.0458238
0.0498584
0.0522309
0.0468098
0.0448689
0.0468874
0.0457101
0.0491095
0.0521267
0.0502335
0.0520463
0.0498923
0.0526537
0.0461102
0.0513331
0.0500993
0.0504745
0.0450836
0.0534905
0.0493061
0.0532183
0.052355
0.0490106
0.0508462
0.0479303
0.0495305
0.0515468
0.0546588
0.0540149
0.0531577
0.0501182
0.0514877
0.0486931
0.050554
0.0513385
0.0575485
0.0487706
0.0520666
0.0518296
0.0523507
0.0542293
0.0531838
0.0503436
0.051344
0.0541336
0.0585583
0.0529739
0.0506888
0.0553414
0.0598968
0.0491078
0.0543493
0.0537095
0.054055
0.0557876
0.0548558
0.0556554
0.0557478
0.055626
0.0550187
0.0565212
0.0571918
0.0541532
0.0556206
0.0568574
0.0623305
0.0590735
0.0617425
0.0576574
0.0553594
0.0559375
0.0677079
0.0629776
0.0621481
0.0581719
0.0607356
0.0598429
0.0594921
0.0575163
0.0581909
0.0647642
0.0691322
0.0662994
0.0661678
0.0626682
0.0632203
0.0663884
0.0672546
0.0621772
0.0683046
0.0644363
0.0597436
0.06757
0.0627132
0.0669835
0.070102
0.0754801
0.0695607
0.066983
0.0700792
0.0684318
0.0726068
0.0694866
0.0686809
0.0679286
0.059331
0.0664391
0.0673204
0.0682701
0.074057
0.072358
0.0712364
0.0298403
7.61637e-05
0.0345095
0.0497009
0.0417883
0.0471845
0.0425579
0.0486111
0.0433243
0.0421014
0.0452799
0.04437
0.0484787
0.0471876
0.0476572
0.0458083
0.0428558
0.0462555
0.0473391
0.0473814
0.0417816
0.0464535
0.0468189
0.0489526
0.0475912
0.0486324
0.0496987
0.0505538
0.0438629
0.0446419
0.0446836
0.0492632
0.0486597
0.0446343
0.0444578
0.043364
0.053619
0.0484294
0.0518392
0.0471916
0.045552
0.0483593
0.0416946
0.0486129
0.0448888
0.0478413
0.0437221
0.0494262
0.0537577
0.0456294
0.0438783
0.0460633
0.0459016
0.0498592
0.0485747
0.0509617
0.0509393
0.0479508
0.0527519
0.0444
0.050724
0.0505303
0.0474203
0.0456834
0.0510807
0.0501276
0.0518546
0.0523905
0.047121
0.0510162
0.0466458
0.0492875
0.0488412
0.0550723
0.0524163
0.0514545
0.0509088
0.0522273
0.0486167
0.0476015
0.0509985
0.0560379
0.0502568
0.0493668
0.0528742
0.0514847
0.052192
0.0525359
0.0500337
0.0494513
0.0523101
0.0583056
0.0523742
0.0504435
0.052652
0.0595334
0.0482718
0.0530126
0.0531939
0.055889
0.0523017
0.053414
0.0543643
0.0553674
0.0557373
0.0540686
0.0552081
0.0561822
0.0543254
0.0548383
0.0552263
0.0600571
0.0595059
0.0602533
0.0572493
0.0544531
0.0528924
0.0666034
0.0637839
0.0591593
0.0588882
0.0623315
0.0567196
0.0586413
0.0585812
0.0553184
0.062718
0.0678411
0.0662207
0.0655879
0.0618743
0.0613433
0.0657578
0.0668275
0.0604033
0.0677429
0.0636468
0.0592563
0.0661754
0.0610784
0.0663923
0.0688164
0.0741748
0.0685565
0.0660241
0.0700558
0.0664441
0.072293
0.0678654
0.067286
0.0672352
0.0574875
0.0661781
0.0662811
0.0686479
0.0709078
0.0722781
0.0691479
0.0276569
4.51655e-05
0.0344252
0.0483962
0.0425895
0.0463872
0.0417522
0.0488773
0.0439809
0.0422922
0.0443955
0.0446706
0.0479985
0.0487555
0.0474984
0.0457068
0.0451559
0.0450847
0.0463855
0.0459338
0.0456155
0.0439688
0.0492325
0.0483601
0.0456577
0.0495643
0.0496814
0.0484482
0.0445662
0.0444939
0.0460955
0.0489842
0.0487
0.0419108
0.0473335
0.0457669
0.0490625
0.0534834
0.0493443
0.0487807
0.0424441
0.0493174
0.0429271
0.0476962
0.0441265
0.0455265
0.0473698
0.0475804
0.0552521
0.0447303
0.0455251
0.0445236
0.0461786
0.0503045
0.0499788
0.0513654
0.0487641
0.0471566
0.0519551
0.0463172
0.0499741
0.0507216
0.0455207
0.048635
0.0498082
0.0496618
0.0524745
0.0525807
0.0468622
0.0507002
0.0469389
0.048529
0.0486071
0.0540332
0.0533178
0.0509738
0.0501902
0.0534766
0.0514676
0.0460456
0.051532
0.0541523
0.0520459
0.0489747
0.0529301
0.0524271
0.0507019
0.0523787
0.0515088
0.0503618
0.0497528
0.0581428
0.0529179
0.0505567
0.052452
0.0604891
0.0492357
0.0511776
0.0547096
0.0576726
0.0497171
0.0525991
0.0551552
0.0547338
0.0577317
0.0526619
0.0544403
0.0565953
0.0541722
0.0538612
0.0570718
0.0586046
0.0621029
0.0588312
0.0567042
0.0554428
0.0510264
0.0665893
0.064667
0.0577902
0.0593809
0.0634193
0.057923
0.0573196
0.059247
0.0550346
0.0624261
0.0683524
0.0667682
0.0631976
0.063855
0.0606769
0.0655158
0.0677996
0.0601448
0.0658331
0.0646385
0.0602097
0.0657916
0.061444
0.0665465
0.068452
0.0741982
0.0686863
0.0653998
0.0712822
0.0657752
0.0730771
0.0676765
0.0666948
0.0664935
0.057207
0.0659211
0.0672007
0.0693797
0.0689011
0.073298
0.0681727
0.0270205
0.00372231
0.032882
0.0459319
0.0449409
0.0476234
0.0433794
0.0496608
0.0427207
0.0450195
0.044203
0.0468547
0.0472415
0.0533086
0.0446223
0.0460816
0.0486618
0.0480972
0.0463131
0.0447573
0.0471214
0.0455154
0.0467405
0.0495109
0.0452872
0.0520565
0.0517957
0.0469932
0.0448131
0.0470638
0.0478481
0.0492812
0.0474121
0.0439972
0.0465046
0.0484836
0.0482209
0.0541437
0.053337
0.0512038
0.0403922
0.0478651
0.0459584
0.0480448
0.0451576
0.0439901
0.0492698
0.0483998
0.0547685
0.0488442
0.0459691
0.0432848
0.0479419
0.0506169
0.0512419
0.0545348
0.0460653
0.0503142
0.050292
0.0485456
0.0512399
0.0507434
0.045209
0.0516512
0.0475536
0.0503129
0.0550242
0.0516047
0.0518789
0.0485779
0.0478822
0.0480641
0.0502169
0.0559697
0.05306
0.0508875
0.0520652
0.0571919
0.0512521
0.0466579
0.0529419
0.0516983
0.0559232
0.0488642
0.053697
0.0533419
0.0530179
0.0513965
0.0533307
0.0509563
0.0513367
0.057121
0.0552331
0.0503537
0.054223
0.0600868
0.0520605
0.0509669
0.0557774
0.0585666
0.0526541
0.0503781
0.0567293
0.0532411
0.0586073
0.0565115
0.056516
0.0560147
0.0553829
0.054036
0.0589774
0.0600739
0.0624969
0.0606521
0.056883
0.0563527
0.0521819
0.0679111
0.0630334
0.0597842
0.0614214
0.0619035
0.0612327
0.0575674
0.0625274
0.0550466
0.0620251
0.069285
0.0690264
0.0627382
0.0665317
0.0610817
0.0667311
0.0669283
0.0623774
0.0660498
0.0662317
0.0612646
0.0673337
0.0623448
0.0672977
0.0697939
0.0752557
0.069736
0.0656377
0.0732212
0.0666564
0.0745091
0.0681915
0.0689201
0.0658283
0.0582715
0.0655849
0.0682071
0.0711133
0.0684646
0.0737929
0.0707665
0.027754
0.0107111
0.0302505
0.0461933
0.0479141
0.0481295
0.0480495
0.0489675
0.0461622
0.0455649
0.0438505
0.0516531
0.0480175
0.0543966
0.0467305
0.0466589
0.0509175
0.0511938
0.0483562
0.0460163
0.046758
0.0469908
0.0487579
0.0505674
0.0478297
0.0552035
0.0534827
0.0463181
0.0486548
0.0474258
0.0513808
0.0473829
0.0474851
0.0476845
0.0471458
0.0519166
0.0506428
0.0571391
0.0553771
0.0514571
0.0416983
0.0478494
0.0493325
0.0501164
0.0451633
0.0439833
0.0514482
0.0521798
0.0537033
0.052117
0.0480901
0.0464623
0.048077
0.0548527
0.0532512
0.0536572
0.0467086
0.0536747
0.0508659
0.0504699
0.0518944
0.0530604
0.0464427
0.0548919
0.0475187
0.0542301
0.0553945
0.0523749
0.0555123
0.0495755
0.0478223
0.049462
0.0524042
0.0588836
0.0542979
0.0513547
0.0539589
0.0594035
0.0546617
0.0485624
0.0538851
0.0531082
0.0583502
0.0515309
0.0548378
0.0552593
0.0545398
0.0525411
0.0542834
0.0537678
0.0555052
0.0549547
0.0589876
0.051532
0.0577262
0.0606418
0.054811
0.0518344
0.0571854
0.0614454
0.0539305
0.05195
0.0579952
0.0577852
0.0579307
0.0602308
0.0593351
0.0571728
0.0566876
0.0562785
0.0595728
0.0639434
0.0660724
0.0631484
0.0564226
0.0593327
0.0542373
0.0699347
0.0641398
0.0618702
0.0623481
0.0659837
0.0627972
0.0585737
0.0675106
0.0541378
0.064881
0.072292
0.069832
0.0669895
0.0668388
0.064631
0.0675002
0.0685255
0.06546
0.0671368
0.0689653
0.0643999
0.068994
0.0650647
0.0683638
0.0730132
0.0771196
0.0717119
0.0673647
0.075358
0.069235
0.0774812
0.0691532
0.0715396
0.0675404
0.0601155
0.0664651
0.0693863
0.0756971
0.067419
0.0767739
0.0736376
0.0304392
0.0199761
0.0311315
0.0447653
0.0533637
0.0479581
0.0550936
0.050249
0.0486599
0.0466146
0.0476467
0.0545519
0.0507891
0.0557825
0.0509847
0.0480882
0.0555045
0.054097
0.0500783
0.047942
0.0499011
0.0489967
0.052057
0.0528516
0.0526925
0.0562299
0.0552166
0.0487712
0.053466
0.0502011
0.0527237
0.0511594
0.0479877
0.0503654
0.048719
0.0548337
0.0536725
0.0637862
0.0582992
0.0519754
0.0456671
0.0479313
0.0538513
0.0513996
0.0497029
0.0432772
0.0538764
0.0574693
0.0553772
0.0553988
0.0533613
0.0484977
0.0520621
0.0558162
0.0571924
0.0540174
0.0511494
0.0569076
0.0502647
0.0552687
0.0540914
0.0545251
0.0543309
0.0546201
0.0488766
0.0589339
0.0578159
0.0553021
0.0583784
0.0527653
0.0513019
0.0490929
0.0570381
0.0610528
0.0563875
0.0544604
0.0598229
0.0601749
0.0589204
0.0499501
0.0571328
0.0557459
0.0607585
0.0554916
0.0571093
0.0589909
0.0572094
0.055105
0.0571256
0.057939
0.0589078
0.0571946
0.0605378
0.057001
0.0631244
0.0573906
0.0598091
0.0564357
0.0604985
0.0644591
0.0565965
0.0557261
0.0593279
0.0633942
0.0605925
0.06478
0.0614299
0.0625826
0.0576256
0.0595584
0.0630637
0.0669356
0.0691249
0.0675879
0.061633
0.0593053
0.0601278
0.0715553
0.0678834
0.0652669
0.0656317
0.0700185
0.0660155
0.0618977
0.0689124
0.0594987
0.066753
0.0765798
0.0736608
0.070524
0.0712186
0.0669584
0.0707001
0.0722896
0.0702714
0.0695288
0.0738647
0.0670575
0.0726247
0.0690953
0.0720256
0.0768577
0.0797265
0.0752902
0.0710169
0.079014
0.072794
0.0816704
0.0723386
0.0750852
0.0710188
0.062767
0.0685252
0.0710533
0.0819838
0.0683535
0.0808659
0.0760377
0.0370132
0.0313493
0.0350381
0.04573
0.0562449
0.0506855
0.0618276
0.052937
0.0516958
0.0535053
0.0511479
0.0570267
0.0577064
0.0612116
0.0537144
0.0534095
0.0620979
0.0571414
0.0505166
0.0547167
0.0545615
0.055481
0.0557664
0.0549826
0.0584576
0.0601039
0.0575771
0.0509171
0.056366
0.0584204
0.0562954
0.0559501
0.0488406
0.056633
0.0540771
0.056568
0.0618707
0.0646543
0.0659543
0.0526102
0.0518726
0.0528597
0.0577711
0.0542507
0.0508044
0.0498164
0.0582677
0.0622105
0.0595748
0.0617628
0.0555063
0.0542701
0.057345
0.0579224
0.0622881
0.0581034
0.0563076
0.0594632
0.0528105
0.0618355
0.0584099
0.0557442
0.0629192
0.0592405
0.0498714
0.0649532
0.0636717
0.0576966
0.0611376
0.0579846
0.0568386
0.0522895
0.0629591
0.0632428
0.0589695
0.0623612
0.0652802
0.0610779
0.0626303
0.0564339
0.062679
0.0623753
0.0608508
0.0625862
0.0612057
0.0655638
0.0601775
0.0595027
0.0613481
0.0637118
0.0616157
0.0623269
0.0661481
0.0615063
0.067922
0.0599226
0.0665483
0.061679
0.0679394
0.065607
0.0621942
0.0608867
0.0655286
0.0659328
0.0676489
0.0703794
0.0655375
0.0683721
0.0613754
0.0634971
0.070221
0.0720954
0.075676
0.0717731
0.0673595
0.0613815
0.068555
0.0768597
0.0723387
0.0681836
0.0713977
0.0755414
0.0713887
0.0679927
0.071743
0.0659488
0.0731763
0.08106
0.0795791
0.075129
0.0776036
0.0709608
0.0738385
0.0807463
0.0780837
0.0742753
0.0806083
0.0716234
0.0779247
0.0740402
0.0782175
0.0824995
0.0845875
0.0808831
0.0760224
0.0845978
0.0781145
0.088007
0.0764493
0.0814673
0.0748359
0.0680712
0.0733518
0.0749201
0.0880195
0.0757051
0.0828776
0.0789274
0.0482154
