# vtk DataFile Version 2.0
crystal.vtk
ASCII
DATASET STRUCTURED_POINTS
DIMENSIONS 158 10 1
ORIGIN -0.283361 -0.003 0
SPACING 0.000605096 0.000666667 0
POINT_DATA 1580
SCALARS values double 1
LOOKUP_TABLE default
0.0190515
0.0249224
0.0320322
0.0365555
0.0396403
0.0464258
0.0565868
0.0587076
0.0703671
0.0712915
0.0725841
0.0887988
0.0925823
0.0941694
0.0999045
0.106562
0.108555
0.123312
0.128123
0.127831
0.12099
0.129599
0.130684
0.124282
0.126562
0.128362
0.122151
0.126024
0.123608
0.126026
0.126734
0.124216
0.118862
0.121513
0.124034
0.123735
0.123096
0.126313
0.127002
0.118064
0.12078
0.124214
0.130711
0.124245
0.109437
0.121614
0.116477
0.122646
0.121607
0.119347
0.121923
0.124567
0.129396
0.120042
0.126478
0.120182
0.122743
0.115328
0.116764
0.119805
0.122453
0.11941
0.114777
0.12139
0.118028
0.114699
0.113108
0.125418
0.115672
0.113418
0.109958
0.119589
0.120206
0.109864
0.117779
0.11427
0.117217
0.122324
0.111397
0.111033
0.105582
0.118536
0.11725
0.116122
0.115798
0.115007
0.116857
0.113763
0.116228
0.115268
0.109578
0.112975
0.117389
0.112255
0.112472
0.114799
0.118101
0.118559
0.111926
0.110624
0.111543
0.11881
0.116533
0.116312
0.110615
0.103903
0.0969894
0.102612
0.103297
0.105431
0.093174
0.088218
0.0874633
0.0874401
0.0817689
0.0835193
0.0928917
0.0856347
0.0880419
0.0861529
0.0853892
0.0826646
0.0853378
0.0797795
0.0924418
0.0887225
0.0845612
0.0814115
0.0841748
0.0768486
0.0834556
0.0826103
0.0530312
0.0196725
0.00499546
0.000253576
0.000233739
0.000234792
0.000584021
0.000227992
0.0004333
0.000890009
5.92864e-05
9.09187e-05
0.000330147
1.27074e-05
2.52721e-05
0.000159875
0.000131445
0.000470549
0.000292292
0.000273229
8.4429e-06
0
3.11092e-05
0.00010815
0.00062171
0.000204365
0.0196324
0.0268773
0.0282377
0.0342331
0.0380962
0.043764
0.0554429
0.0542809
0.065663
0.0653617
0.0719564
0.0798394
0.0864953
0.0877001
0.0949126
0.101664
0.100496
0.113703
0.118282
0.118352
0.113502
0.121001
0.122346
0.116609
0.117182
0.116962
0.114924
0.117772
0.116028
0.117274
0.119527
0.115192
0.112207
0.113155
0.112391
0.117767
0.114752
0.117395
0.11867
0.109055
0.113224
0.114421
0.124708
0.11507
0.102942
0.113878
0.110497
0.113517
0.114137
0.109458
0.11391
0.118608
0.121416
0.112532
0.119047
0.112804
0.114074
0.107223
0.111975
0.11196
0.112757
0.114451
0.108402
0.112207
0.109403
0.105995
0.106768
0.117046
0.106471
0.111507
0.0996033
0.110999
0.111191
0.104009
0.10844
0.106796
0.110211
0.111758
0.106746
0.10228
0.0984171
0.112374
0.108636
0.108943
0.109042
0.107392
0.108275
0.108395
0.109442
0.10745
0.103265
0.104494
0.108954
0.106426
0.10324
0.110875
0.107165
0.111439
0.104032
0.106103
0.103022
0.108579
0.109609
0.111195
0.100521
0.100318
0.091942
0.0956112
0.096849
0.0941703
0.0812013
0.0839646
0.0816829
0.0813952
0.0751636
0.0789635
0.0837694
0.0794216
0.0817237
0.0776791
0.0818083
0.0770583
0.0785687
0.0754857
0.0816371
0.0809026
0.0792219
0.0756292
0.077143
0.0706094
0.0783635
0.0774366
0.0574804
0.0199481
0.00246383
0.000203895
0.000190359
0.000224731
0.000385966
0.000374358
0.00043065
0.000663746
0.000308219
0.000107259
0.000212434
0.000105806
6.61167e-06
0.000297904
5.64607e-05
0.000342122
0.000308039
0.000247101
8.5657e-05
0
0.000130964
0.000184964
0.000259754
0.000253528
0.0204831
0.0254864
0.0271785
0.031465
0.0387473
0.042721
0.0525867
0.0526417
0.061186
0.0651649
0.0689852
0.0740326
0.0814649
0.0860698
0.0873362
0.0996323
0.0947084
0.110369
0.1107
0.111481
0.110831
0.114161
0.118038
0.110952
0.108689
0.113736
0.108935
0.112464
0.110117
0.112598
0.113646
0.109353
0.1078
0.107466
0.1063
0.112484
0.109879
0.110871
0.114114
0.103843
0.108083
0.108317
0.118851
0.109337
0.098061
0.111347
0.105342
0.109812
0.107632
0.103563
0.109417
0.11315
0.115112
0.10937
0.113838
0.109069
0.105005
0.105081
0.105338
0.109921
0.105686
0.111526
0.103723
0.106765
0.102254
0.101279
0.101714
0.111363
0.105014
0.104768
0.0953349
0.103918
0.107199
0.09992
0.101195
0.103698
0.10527
0.103419
0.105539
0.0955862
0.0965927
0.104589
0.105907
0.100588
0.102408
0.106148
0.102709
0.105997
0.10434
0.101245
0.0995601
0.100968
0.100878
0.103888
0.099197
0.104793
0.102805
0.102603
0.0993554
0.105124
0.0981499
0.102377
0.105981
0.104681
0.0952887
0.0984809
0.0877082
0.092956
0.0920833
0.0859385
0.0750469
0.0800663
0.0755451
0.0793884
0.0709251
0.0771216
0.0748271
0.0779596
0.0751634
0.0751701
0.0787818
0.0729057
0.0739544
0.0722619
0.0765551
0.0745547
0.0750021
0.0746926
0.0710607
0.0673702
0.0741357
0.0730774
0.0602435
0.0209912
0.00110456
0.000100385
0.000145632
9.31593e-05
0.000159731
0.00060783
0.000396937
0.000361412
0.000641773
0.00021474
6.34349e-05
0.000170443
0.000312571
7.07657e-06
0.000402681
8.44456e-06
9.75405e-05
0.000233596
0.000295311
0.000101528
8.52632e-05
0.000414372
0
0.000200498
0.0193262
0.0242384
0.0275389
0.030714
0.0380305
0.0426765
0.0496656
0.0513298
0.0603677
0.0656565
0.0649629
0.0718123
0.0795075
0.0828835
0.084707
0.0982635
0.0914417
0.107439
0.105662
0.106804
0.107308
0.112368
0.114748
0.107182
0.104861
0.110984
0.105636
0.108259
0.106167
0.111465
0.109098
0.106587
0.104438
0.104007
0.103381
0.109786
0.106707
0.106766
0.110891
0.101691
0.103398
0.104793
0.114068
0.107725
0.0946697
0.110934
0.103077
0.104965
0.102634
0.100166
0.108757
0.110163
0.110268
0.10851
0.108746
0.106475
0.102166
0.103236
0.10021
0.10947
0.101167
0.107338
0.102974
0.104172
0.0963106
0.0996753
0.0968387
0.107536
0.103372
0.101516
0.0947591
0.0997715
0.103966
0.0979246
0.0958495
0.103695
0.100757
0.100825
0.101108
0.094895
0.0955048
0.0990263
0.100994
0.100354
0.097804
0.102036
0.100999
0.103263
0.102696
0.0964706
0.0989929
0.0971843
0.0977858
0.100669
0.0973177
0.101058
0.100516
0.0957359
0.0994797
0.100147
0.0992128
0.0976482
0.0987313
0.104909
0.0930746
0.0932578
0.0890375
0.0933382
0.0872106
0.077235
0.0755302
0.074494
0.0750156
0.0755518
0.0704055
0.0762222
0.0683034
0.0762036
0.0728988
0.0722239
0.0763744
0.071665
0.0709577
0.0693112
0.0755188
0.0712317
0.0711947
0.0739908
0.0672255
0.0678332
0.0701369
0.0711102
0.0612742
0.0217123
0.000253469
1.34727e-05
0.000216504
4.14145e-05
9.71368e-05
0.000437152
0.000608288
0.000187695
0.000514068
0.000463707
4.35269e-05
0.000207122
0.000287933
0.000246046
0.000178135
2.15599e-05
2.20959e-05
0.000221281
0.000166343
0.000349283
0.000381702
8.14186e-05
6.09089e-05
4.28883e-05
0.0182319
0.022239
0.0276584
0.0324778
0.0367713
0.0415644
0.0500693
0.048003
0.0620905
0.0646288
0.0647831
0.0676966
0.0803097
0.0815075
0.0829546
0.0976147
0.0906946
0.105675
0.103283
0.105463
0.104927
0.111467
0.113378
0.104205
0.104976
0.108344
0.106544
0.102424
0.105841
0.110776
0.108063
0.10329
0.10303
0.10353
0.102881
0.108078
0.102038
0.108489
0.108799
0.100418
0.101529
0.101567
0.111622
0.105938
0.0964678
0.108699
0.103368
0.103767
0.100452
0.0969587
0.108669
0.108602
0.108563
0.105829
0.107504
0.104757
0.101805
0.100632
0.1001
0.107769
0.10109
0.103688
0.103761
0.10262
0.0929101
0.0981043
0.0955315
0.107408
0.100474
0.100531
0.0917238
0.100802
0.101635
0.0965936
0.0938195
0.104722
0.0991007
0.098777
0.0970023
0.0980788
0.0925765
0.0979382
0.0979347
0.100693
0.0941684
0.097798
0.101946
0.102923
0.102984
0.0949596
0.0960092
0.0964323
0.0971357
0.0980469
0.097929
0.0993215
0.0968093
0.0958533
0.0978651
0.0974206
0.0995295
0.0949272
0.0981321
0.103035
0.0901652
0.092601
0.0901147
0.0923596
0.0849321
0.0737192
0.0735064
0.074163
0.073928
0.0729881
0.0729217
0.0744311
0.0663863
0.0748312
0.0703585
0.072091
0.0764359
0.0693888
0.0684273
0.0701716
0.0748691
0.0688343
0.0702909
0.0730845
0.065418
0.0703018
0.066414
0.0684078
0.0622427
0.0226827
5.20692e-05
3.5762e-05
3.81955e-06
0.000192802
0.000189726
0.000276901
0.000471068
0.000386043
0.000352944
0.000450437
0.000183333
0.000361386
0.000135389
0.000418036
0
5.78261e-05
0
0
0.000448583
0.000397358
0.000361858
6.00204e-06
0.000107791
0
0.0175487
0.0203302
0.0293499
0.0334126
0.0366765
0.0411104
0.0485241
0.0484887
0.0651292
0.0641352
0.0621597
0.0656004
0.0840623
0.0814716
0.0817615
0.097868
0.089588
0.106358
0.103216
0.105185
0.103236
0.111462
0.114657
0.104872
0.104725
0.108866
0.105323
0.102245
0.106523
0.109287
0.109377
0.104662
0.100888
0.104772
0.104132
0.106184
0.102434
0.10918
0.108132
0.0996295
0.102428
0.100051
0.111088
0.105053
0.101806
0.10606
0.103715
0.103652
0.099113
0.0994416
0.106907
0.108907
0.108175
0.106608
0.107897
0.103143
0.104705
0.0985621
0.100404
0.109392
0.100612
0.102856
0.102054
0.102785
0.0968647
0.0952446
0.0939421
0.107644
0.100447
0.100791
0.091655
0.101994
0.100033
0.0979363
0.0950919
0.102192
0.101729
0.0962867
0.0978174
0.10025
0.0920458
0.0975445
0.0984321
0.0972662
0.0950528
0.0982289
0.101892
0.104338
0.100321
0.0985857
0.0943819
0.0998681
0.0951054
0.0970482
0.098524
0.0983068
0.0964249
0.0967121
0.0965199
0.0992303
0.0972698
0.0951653
0.0991918
0.0968234
0.0942716
0.0949834
0.0888418
0.0929186
0.0840948
0.074717
0.0744748
0.0738647
0.0728532
0.0721493
0.0747268
0.0741526
0.0665175
0.0738803
0.0708251
0.0723577
0.0755314
0.0696223
0.0677144
0.0732828
0.0731188
0.0702978
0.0684946
0.0739313
0.0650985
0.0692739
0.0670472
0.0686624
0.0621097
0.0234514
0.000296368
4.25669e-06
0
0.000120428
0.000356397
0.000161965
0.000104869
0.000792526
0.000141661
0.00027079
0.000797104
7.95026e-05
0.000435194
0.000120936
7.19444e-05
4.65177e-06
0
0.000113822
0.000192682
0.00065094
0.00026061
0.000124752
0
0
0.0161739
0.0205905
0.0300418
0.0345298
0.0380951
0.0400966
0.0464353
0.0523512
0.0646094
0.065365
0.0614955
0.0681872
0.0858185
0.0825414
0.0811505
0.0998241
0.0894723
0.108351
0.105087
0.107318
0.103832
0.112906
0.11419
0.110136
0.1055
0.112067
0.104924
0.104025
0.108016
0.110009
0.111692
0.105457
0.101973
0.1087
0.105542
0.106386
0.104385
0.110461
0.110518
0.0996155
0.104249
0.100933
0.11261
0.106875
0.103658
0.109032
0.103592
0.106116
0.101825
0.101464
0.106905
0.111878
0.10666
0.108837
0.109556
0.104716
0.106086
0.100161
0.101425
0.11278
0.100645
0.105678
0.101048
0.105727
0.0976257
0.0954632
0.0980592
0.106799
0.102499
0.100272
0.0954759
0.102449
0.100055
0.0988865
0.0989312
0.103255
0.104019
0.0960354
0.102779
0.0965916
0.0966059
0.0981419
0.098956
0.100005
0.0957798
0.100278
0.101682
0.107272
0.101557
0.0996203
0.0980618
0.0998942
0.0955896
0.0995592
0.0977048
0.101424
0.0989964
0.0967074
0.0979974
0.098065
0.099155
0.09785
0.100922
0.0961145
0.0964976
0.0966589
0.0899274
0.0931619
0.0854656
0.0782138
0.0778479
0.0720916
0.0739758
0.0746535
0.0764428
0.0751107
0.0645712
0.0770485
0.0717143
0.0749753
0.0761141
0.0713305
0.0682154
0.0775089
0.0711633
0.0714849
0.0711768
0.0738887
0.0657791
0.0704391
0.069318
0.0713887
0.0619032
0.0215608
0.000566736
0.00016491
0
0.000279739
0.000358234
2.23165e-05
0.000320241
0.000223155
0.000493306
0.000320232
0.000506736
0.000543776
0.00023454
7.302e-05
0.000113055
0
1.25041e-05
0.000188182
0.000405128
0.000339231
0.000194591
0.000228021
0
0
0.0168006
0.0219999
0.0290743
0.0362565
0.0394913
0.0380636
0.0494859
0.0546158
0.0646464
0.0666635
0.0654778
0.0684791
0.0864722
0.0880198
0.0829141
0.100864
0.0919946
0.111414
0.109711
0.112128
0.106238
0.113965
0.116929
0.1154
0.109334
0.115775
0.108753
0.105628
0.110405
0.112791
0.115939
0.108855
0.107471
0.111274
0.107136
0.111744
0.105873
0.114629
0.112582
0.103235
0.105391
0.106141
0.114323
0.110027
0.107408
0.114318
0.105188
0.109176
0.109076
0.103102
0.108848
0.114759
0.111142
0.108883
0.11417
0.108963
0.106547
0.105228
0.104675
0.115233
0.104554
0.107354
0.104737
0.108984
0.0994055
0.10128
0.0987064
0.109351
0.104382
0.102727
0.0993642
0.103286
0.104229
0.103853
0.101456
0.108487
0.105429
0.0985589
0.107569
0.0958438
0.0999683
0.102346
0.102418
0.102876
0.096566
0.10555
0.104119
0.108453
0.107135
0.101425
0.102783
0.103835
0.0973541
0.103605
0.0970586
0.10752
0.099164
0.10098
0.10244
0.0976323
0.101037
0.0982119
0.107009
0.0983642
0.0984114
0.0987199
0.0941311
0.0924149
0.0905797
0.0854615
0.0799665
0.0752321
0.0760839
0.0772156
0.0809936
0.0748374
0.0666626
0.0803179
0.0738115
0.0800729
0.0761996
0.0752558
0.0716069
0.0796659
0.0742355
0.0717957
0.0741357
0.0734141
0.0692656
0.0759773
0.071818
0.0728147
0.0617013
0.0200584
0.00193406
0.000273139
0.000168858
0.000256878
0.000126983
0.000317729
0.000219237
0.0001229
0.000444743
0.000625358
0.000263438
0.000739601
0.000106806
0.000142696
4.43509e-05
1.6268e-05
0.000218569
0.000170592
0.000364068
5.03437e-08
0.000403302
0.00021063
2.91426e-05
0.000167787
0.0178108
0.0235829
0.030745
0.0350821
0.0420105
0.0386437
0.0517627
0.0556654
0.0675648
0.0695001
0.0683466
0.0713289
0.0917758
0.0906578
0.0870299
0.105251
0.0963693
0.116809
0.11512
0.119068
0.111274
0.115184
0.124579
0.121091
0.117043
0.11968
0.114868
0.112742
0.116141
0.114325
0.12002
0.11712
0.113807
0.115307
0.11337
0.116439
0.112366
0.119627
0.11636
0.109208
0.108642
0.112877
0.120395
0.112567
0.114193
0.119556
0.112153
0.114379
0.113989
0.110624
0.11349
0.117458
0.117817
0.114004
0.11844
0.115149
0.111288
0.110503
0.110508
0.120062
0.111183
0.108426
0.111683
0.112854
0.103585
0.110181
0.100579
0.115249
0.106964
0.107669
0.106662
0.105381
0.10888
0.112087
0.103197
0.116772
0.10816
0.104656
0.112279
0.100502
0.103454
0.106702
0.109284
0.107186
0.101179
0.111143
0.106947
0.112507
0.115765
0.10514
0.10671
0.110632
0.103059
0.104982
0.102727
0.11007
0.106474
0.104188
0.108223
0.104185
0.101291
0.102608
0.110458
0.102053
0.105005
0.101646
0.100922
0.095911
0.095375
0.0932869
0.0864849
0.0778113
0.0824644
0.0795585
0.0863961
0.0785916
0.0713909
0.0836506
0.0786745
0.0850552
0.0796392
0.0785841
0.0784949
0.0830629
0.0771107
0.0740869
0.0801325
0.075562
0.075359
0.0812693
0.0751497
0.0769633
0.0582116
0.0202642
0.00317666
0.000306206
0.000598149
0.000269186
4.14832e-06
0.000518494
9.85281e-05
6.84153e-05
0.000469007
0.000587565
0.000503081
0.000272095
0.000504233
4.46205e-05
1.03084e-05
0.000170247
0.000140974
0.000524029
0
0.000164378
0.000101467
0.000143835
0.000279885
0.000193421
0.0221089
0.024008
0.0326626
0.0361015
0.0417247
0.0444963
0.0533938
0.058098
0.0696651
0.0756532
0.0726799
0.076964
0.0968604
0.0970231
0.0937267
0.109813
0.105132
0.123004
0.122424
0.129535
0.119275
0.125068
0.130184
0.130741
0.126169
0.130163
0.122957
0.120584
0.122117
0.123613
0.12604
0.128594
0.12292
0.122776
0.12118
0.123582
0.12238
0.126425
0.124707
0.115352
0.117182
0.119566
0.131437
0.117225
0.123005
0.127816
0.122275
0.126182
0.120918
0.11865
0.122831
0.124543
0.124531
0.124457
0.124058
0.122893
0.120597
0.117325
0.118709
0.128728
0.116964
0.115432
0.121674
0.119562
0.107934
0.120196
0.109807
0.119482
0.114219
0.113324
0.11396
0.11275
0.119351
0.120928
0.109093
0.124713
0.115561
0.11523
0.116092
0.110076
0.109617
0.111714
0.117709
0.116291
0.109387
0.11669
0.113797
0.122716
0.122812
0.110326
0.114531
0.119697
0.110278
0.109752
0.110267
0.118126
0.11186
0.111956
0.116197
0.111954
0.103703
0.11175
0.114163
0.110786
0.111767
0.105539
0.108677
0.105745
0.101096
0.104538
0.0963897
0.0820145
0.091164
0.0842384
0.0941062
0.0848544
0.078404
0.0883262
0.0849983
0.0940786
0.08546
0.083807
0.0891796
0.0892255
0.0790313
0.0830862
0.0861643
0.080562
0.0859136
0.0850095
0.0826477
0.0813168
0.0559646
0.0195156
0.0050299
0.000428196
0.000712886
0.000168304
0.000399797
8.29656e-05
0.00027235
0.000188998
0.00037893
0.00041897
0.00065684
0.000228785
0.000351707
0.000219958
1.65426e-06
0.000274269
0.000447292
0.000150447
8.77073e-05
9.25016e-05
0
0.000227717
0.000361528
0.000127742
