# vtk DataFile Version 2.0
crystal.vtk
ASCII
DATASET STRUCTURED_POINTS
DIMENSIONS 158 10 1
ORIGIN -0.299994 -0.003 0
SPACING 0.000605096 0.000666667 0
POINT_DATA 1580
SCALARS values double 1
LOOKUP_TABLE default
0.00722308
0.0186407
0.0248324
0.0348224
0.035794
0.0549751
0.0555953
0.0681863
0.0728248
0.0780124
0.0902312
0.0949254
0.0919573
0.111664
0.116138
0.119843
0.128441
0.125321
0.145904
0.153018
0.146912
0.15846
0.163672
0.166174
0.162646
0.166521
0.17692
0.163336
0.168989
0.17812
0.178713
0.170995
0.177207
0.183477
0.191579
0.186742
0.191452
0.179135
0.183132
0.194336
0.181748
0.183708
0.179443
0.184397
0.179466
0.173734
0.177343
0.175977
0.168733
0.171442
0.173282
0.172597
0.173376
0.165634
0.158906
0.173187
0.170463
0.162727
0.167179
0.168471
0.17013
0.157889
0.151728
0.165092
0.155626
0.158263
0.157539
0.159385
0.158104
0.158306
0.157741
0.156699
0.159155
0.153919
0.150405
0.160095
0.146949
0.140313
0.14076
0.148383
0.148501
0.148085
0.146618
0.140339
0.14471
0.140833
0.146116
0.147325
0.138734
0.130666
0.135363
0.137689
0.134338
0.134024
0.130581
0.142141
0.139368
0.136933
0.129318
0.133833
0.127375
0.133487
0.13216
0.131389
0.126034
0.128483
0.136212
0.125777
0.119837
0.130986
0.123512
0.121865
0.124042
0.126426
0.128572
0.125652
0.119972
0.126997
0.115503
0.124026
0.117804
0.114761
0.122669
0.121482
0.122524
0.121433
0.10761
0.111316
0.114918
0.114946
0.11269
0.118268
0.10919
0.110732
0.0962168
0.110106
0.112089
0.0993714
0.103609
0.101588
0.100428
0.1049
0.0866831
0.0851702
0.0788921
0.0794345
0.0810438
0.0757158
0.06577
0.0682732
0.0609197
0.0629605
0.055971
0.0404252
0.0316129
0.0089167
0.00736561
0.00874118
0.00443919
0.0119412
0.0235004
0.0303557
0.0323628
0.0459352
0.0550568
0.0594301
0.0676155
0.0693031
0.0810485
0.0882331
0.0823836
0.100162
0.106752
0.109092
0.119129
0.112626
0.130595
0.144898
0.139117
0.145873
0.145112
0.157669
0.150253
0.159857
0.159532
0.155167
0.157639
0.166055
0.167481
0.163109
0.163685
0.174053
0.174787
0.178419
0.179504
0.171065
0.175703
0.17829
0.172983
0.174657
0.166869
0.17612
0.170371
0.163287
0.167482
0.164971
0.160496
0.156982
0.163916
0.161939
0.161588
0.156846
0.15393
0.162936
0.15771
0.154175
0.157298
0.160366
0.159163
0.148902
0.145584
0.152829
0.15038
0.148878
0.147469
0.146643
0.147717
0.148213
0.15085
0.148216
0.148954
0.147117
0.13968
0.150106
0.14091
0.135162
0.128824
0.142712
0.138708
0.142295
0.135518
0.129266
0.139145
0.132252
0.136729
0.138293
0.129569
0.124755
0.128576
0.126286
0.126888
0.126393
0.123433
0.13362
0.133474
0.126733
0.121538
0.128701
0.121177
0.128551
0.123309
0.119834
0.122833
0.119696
0.133158
0.121311
0.111189
0.120071
0.11876
0.112107
0.115876
0.118598
0.123934
0.118262
0.11288
0.118916
0.109333
0.114833
0.112948
0.106725
0.116789
0.116263
0.11874
0.105872
0.108315
0.107312
0.106799
0.108176
0.105576
0.11016
0.10429
0.104698
0.0959369
0.101632
0.103962
0.0953322
0.0997161
0.0975245
0.0955069
0.0990871
0.0824819
0.0850074
0.0775757
0.0755834
0.0736421
0.075263
0.065787
0.0638389
0.0582693
0.063184
0.0549083
0.0390312
0.0277278
0.0169344
0.00712345
0.00862784
0.00210507
0.00931507
0.0211097
0.027856
0.030388
0.0399455
0.053338
0.0557298
0.0612204
0.0664105
0.0750761
0.0794902
0.0836295
0.093839
0.0986264
0.101854
0.110686
0.109383
0.118332
0.137039
0.136257
0.133958
0.137795
0.15145
0.144083
0.148964
0.151885
0.150196
0.153477
0.151488
0.165093
0.15508
0.156684
0.16391
0.16809
0.172522
0.170544
0.16205
0.173689
0.169282
0.17211
0.165559
0.159274
0.170557
0.162909
0.157989
0.158229
0.158275
0.156559
0.148254
0.154599
0.156993
0.160706
0.147063
0.149252
0.152751
0.154221
0.147943
0.15073
0.153506
0.152532
0.143263
0.143895
0.147064
0.14565
0.140305
0.139945
0.140161
0.141493
0.140519
0.147258
0.142441
0.142405
0.139006
0.135722
0.143793
0.134495
0.131688
0.123485
0.137172
0.132296
0.135651
0.130737
0.127396
0.131417
0.125666
0.132108
0.129729
0.125414
0.12127
0.123208
0.122559
0.116387
0.121681
0.127734
0.125777
0.124342
0.12101
0.123015
0.1244
0.116674
0.120915
0.114842
0.113584
0.125109
0.11555
0.124213
0.119242
0.110658
0.109105
0.115516
0.112189
0.108821
0.111144
0.118704
0.112238
0.114053
0.108453
0.108876
0.10718
0.10841
0.102204
0.11133
0.114478
0.113541
0.101232
0.107211
0.106224
0.101503
0.102367
0.0998854
0.105622
0.10268
0.0960466
0.0984332
0.0933492
0.102238
0.0910957
0.0940859
0.0995414
0.0922851
0.0891657
0.08673
0.0810974
0.0805787
0.0724341
0.0715415
0.0708627
0.066332
0.0591972
0.060612
0.0596211
0.0568107
0.0392173
0.0225063
0.0204585
0.0118349
0.00724822
0.000521572
0.00853453
0.0200539
0.0243831
0.032196
0.0348316
0.0506272
0.0530433
0.0564959
0.0674936
0.0699605
0.0751091
0.0857946
0.0881445
0.093585
0.0984624
0.10197
0.110062
0.114465
0.129348
0.135087
0.129149
0.1332
0.144859
0.143675
0.139833
0.141731
0.153215
0.147733
0.148152
0.157308
0.157337
0.153794
0.15472
0.161271
0.174378
0.163331
0.157023
0.167946
0.168195
0.168046
0.159597
0.154494
0.168684
0.159228
0.155839
0.150085
0.150429
0.159469
0.144581
0.148752
0.152229
0.154336
0.145467
0.148866
0.147594
0.150307
0.144259
0.146744
0.147057
0.149806
0.141143
0.141046
0.144982
0.140145
0.137181
0.137159
0.135922
0.135957
0.135459
0.144604
0.139153
0.13715
0.134787
0.139219
0.133291
0.13332
0.125975
0.126651
0.13212
0.127584
0.130499
0.131264
0.122934
0.123861
0.126535
0.126054
0.127339
0.122742
0.120008
0.119507
0.118518
0.108539
0.124208
0.124539
0.11931
0.123854
0.1179
0.121482
0.120119
0.119585
0.11711
0.10713
0.11411
0.117802
0.117779
0.117748
0.118928
0.110034
0.103757
0.113966
0.108445
0.104511
0.108401
0.113516
0.112379
0.110722
0.10376
0.106078
0.105155
0.1046
0.102531
0.106037
0.112819
0.11058
0.0985675
0.102541
0.110486
0.0995003
0.0967465
0.0971083
0.101501
0.098281
0.0979755
0.0965205
0.0905058
0.10097
0.08752
0.0929841
0.0982435
0.0896988
0.0834009
0.0864702
0.0811365
0.083592
0.0686448
0.071673
0.0667664
0.0665756
0.0565548
0.0632111
0.0581116
0.0568503
0.0376794
0.0205901
0.0209449
0.0174383
0.00715613
0.000105442
0.00711558
0.019808
0.0234181
0.0337843
0.032536
0.0471073
0.0535276
0.0553706
0.0655039
0.0683335
0.0750712
0.0856356
0.0853875
0.0885156
0.0994516
0.0967469
0.111436
0.111518
0.12422
0.131834
0.1299
0.137925
0.135649
0.142351
0.135851
0.143448
0.148523
0.14797
0.143529
0.156727
0.156214
0.153611
0.151191
0.159312
0.168651
0.160615
0.158692
0.164876
0.16829
0.163617
0.157232
0.154712
0.167592
0.156508
0.155055
0.148131
0.150929
0.151482
0.144528
0.147556
0.151474
0.151161
0.14433
0.144393
0.147387
0.148651
0.143258
0.145308
0.144193
0.15098
0.139226
0.137197
0.145133
0.135192
0.140145
0.135154
0.128996
0.136411
0.135259
0.140089
0.140922
0.132547
0.133347
0.137896
0.127732
0.135049
0.125599
0.126607
0.129362
0.124678
0.129738
0.130112
0.120371
0.122576
0.130515
0.11829
0.125774
0.120161
0.119906
0.121309
0.111373
0.107888
0.125897
0.120896
0.121571
0.119256
0.115284
0.122518
0.121431
0.11854
0.114699
0.10286
0.113703
0.11519
0.121102
0.112993
0.115889
0.109973
0.104632
0.109972
0.105154
0.109378
0.104675
0.110847
0.113204
0.106513
0.104199
0.104756
0.104862
0.0987567
0.105923
0.101312
0.11279
0.107253
0.102124
0.0991207
0.109391
0.0994208
0.096137
0.0951247
0.0983885
0.0960537
0.101968
0.0895407
0.092947
0.0950582
0.0917763
0.0914249
0.09639
0.0879354
0.0834151
0.0821168
0.0839698
0.085218
0.0701275
0.0689704
0.0637644
0.0652984
0.0593457
0.0600164
0.0616091
0.0542263
0.0362176
0.0212334
0.0226172
0.0183928
0.00747767
8.45585e-05
0.00781839
0.0180939
0.0247118
0.0322661
0.036074
0.0441969
0.0552655
0.054559
0.064533
0.0698296
0.0731093
0.0875639
0.0863187
0.0909471
0.0941487
0.0994351
0.110685
0.114309
0.120191
0.131057
0.133531
0.136106
0.13411
0.143144
0.139539
0.137377
0.151511
0.149352
0.146661
0.150568
0.156761
0.152987
0.155617
0.157894
0.166111
0.156087
0.165164
0.163889
0.169347
0.159606
0.161559
0.158676
0.167401
0.15346
0.153342
0.149796
0.151051
0.150163
0.143926
0.152365
0.15153
0.143273
0.149449
0.143722
0.148046
0.145984
0.149999
0.143607
0.141858
0.149609
0.137779
0.147654
0.139987
0.132098
0.143507
0.133537
0.129007
0.134792
0.138648
0.136453
0.138466
0.132035
0.136157
0.13734
0.129032
0.130782
0.131688
0.124158
0.127247
0.125347
0.131822
0.126653
0.124225
0.122401
0.125277
0.121338
0.124748
0.122105
0.121046
0.118024
0.106296
0.113776
0.126157
0.119122
0.123607
0.118473
0.116166
0.123416
0.12313
0.116511
0.116183
0.106543
0.109245
0.118085
0.117944
0.114251
0.111212
0.112568
0.10868
0.106497
0.105576
0.113685
0.09982
0.109473
0.114155
0.108601
0.104352
0.101267
0.105776
0.0996394
0.105677
0.102247
0.109338
0.103995
0.108732
0.102216
0.101797
0.103865
0.0970117
0.094458
0.0944354
0.0994131
0.100191
0.0895779
0.0957971
0.0932729
0.0934151
0.0906211
0.0935517
0.0887247
0.0837
0.0831163
0.0835289
0.0814021
0.075449
0.068439
0.0618855
0.0636715
0.0639606
0.059951
0.06344
0.0492794
0.0375011
0.0212324
0.0211794
0.0193003
0.00857209
0.000679422
0.00877154
0.0185385
0.0259582
0.0322994
0.0387272
0.0452369
0.0542195
0.0578492
0.0625139
0.0709109
0.0802154
0.0864374
0.0898177
0.0916251
0.0955233
0.103737
0.111799
0.117672
0.120209
0.132444
0.136112
0.139355
0.137068
0.139895
0.145067
0.138831
0.148181
0.154205
0.151554
0.155402
0.157706
0.15477
0.160806
0.158636
0.163815
0.160709
0.168352
0.166577
0.169608
0.160658
0.163447
0.164755
0.165727
0.158649
0.15436
0.150322
0.151227
0.154218
0.145108
0.156266
0.151963
0.145732
0.148482
0.146433
0.151024
0.146439
0.156675
0.14263
0.14339
0.148297
0.138414
0.154865
0.14102
0.135314
0.140546
0.136293
0.134994
0.135182
0.135632
0.142382
0.136473
0.135618
0.138415
0.135321
0.134164
0.125598
0.136089
0.128789
0.132034
0.123454
0.134604
0.126561
0.127283
0.12632
0.120863
0.125512
0.125059
0.124138
0.122874
0.11782
0.108505
0.115556
0.127094
0.121295
0.124764
0.120519
0.118112
0.126723
0.124399
0.118868
0.114732
0.109727
0.109537
0.12051
0.116203
0.118025
0.109554
0.113788
0.111977
0.108343
0.104315
0.115755
0.103588
0.110447
0.115006
0.109277
0.103055
0.107358
0.104628
0.103535
0.104476
0.105138
0.106057
0.1086
0.109162
0.105207
0.0982824
0.108939
0.099266
0.0941574
0.0930931
0.103438
0.096756
0.0928836
0.0951301
0.0953291
0.0950114
0.0956596
0.0881856
0.0918253
0.0819394
0.087681
0.0818827
0.0823269
0.077175
0.0669035
0.0654365
0.0636918
0.0637482
0.0636881
0.0591875
0.0506723
0.0362107
0.0245898
0.0202939
0.0160156
0.00874184
0.00286657
0.0107955
0.0179954
0.0305413
0.0320702
0.0406262
0.0485968
0.053559
0.0615386
0.0667782
0.0737031
0.0853208
0.0927644
0.0894271
0.0958702
0.0985539
0.110953
0.115691
0.122223
0.121141
0.137787
0.140666
0.145549
0.141629
0.137545
0.152517
0.144554
0.153558
0.154019
0.161463
0.159867
0.163092
0.160223
0.165584
0.160797
0.165806
0.167517
0.169531
0.174202
0.173954
0.165511
0.166159
0.171943
0.165848
0.164808
0.157878
0.158066
0.149283
0.160031
0.148892
0.16275
0.153067
0.15193
0.151633
0.15227
0.149408
0.15253
0.159639
0.148799
0.147734
0.152641
0.146565
0.153006
0.143245
0.139707
0.14272
0.141102
0.140307
0.140157
0.137449
0.146346
0.135721
0.139479
0.140927
0.137655
0.142819
0.128659
0.138084
0.130838
0.133854
0.129227
0.136333
0.132003
0.128539
0.131502
0.124857
0.125357
0.130424
0.125572
0.124034
0.118266
0.114045
0.121927
0.127825
0.126209
0.12504
0.12691
0.122537
0.130596
0.123264
0.12397
0.117641
0.115939
0.114663
0.118141
0.119561
0.119328
0.113531
0.111705
0.117106
0.115571
0.107764
0.113819
0.112918
0.108074
0.113994
0.113385
0.107027
0.110404
0.105174
0.110662
0.107967
0.102642
0.109707
0.112594
0.108596
0.112945
0.0993085
0.109894
0.103051
0.0947081
0.0978407
0.105844
0.0971098
0.0954434
0.0966507
0.0976237
0.0979671
0.0994854
0.0841354
0.0945028
0.0870446
0.0876707
0.0819926
0.0841238
0.0788215
0.0693063
0.0644012
0.0683214
0.0647218
0.0666604
0.056315
0.0525979
0.0340836
0.0263329
0.02026
0.0103465
0.00952467
0.00560559
0.0149395
0.0185885
0.0327468
0.0352328
0.0446483
0.0528131
0.0546993
0.0675236
0.0733489
0.0768248
0.0920459
0.0995557
0.0967931
0.101157
0.104774
0.116646
0.124836
0.131558
0.124956
0.143118
0.14913
0.154955
0.145992
0.14839
0.1553
0.156858
0.160969
0.162738
0.166175
0.167001
0.166407
0.173362
0.17427
0.164911
0.16788
0.182445
0.17262
0.183163
0.178106
0.172923
0.176773
0.18087
0.17101
0.17124
0.162188
0.165638
0.157325
0.16032
0.163707
0.171478
0.154662
0.158034
0.154057
0.160363
0.156988
0.162774
0.163901
0.15696
0.149996
0.157987
0.157477
0.154525
0.152585
0.145217
0.14862
0.147557
0.144339
0.148144
0.143748
0.145843
0.145118
0.146834
0.1438
0.144959
0.141822
0.144248
0.136617
0.139234
0.137436
0.138533
0.138515
0.13944
0.133222
0.135706
0.130446
0.127373
0.140047
0.128577
0.128974
0.119603
0.124087
0.130277
0.128353
0.129894
0.129818
0.133892
0.126956
0.141109
0.12529
0.126994
0.122756
0.123028
0.123829
0.118269
0.123993
0.118068
0.121574
0.116861
0.119402
0.121492
0.117306
0.112035
0.122158
0.114941
0.114819
0.116947
0.11428
0.10936
0.113714
0.117163
0.114037
0.102201
0.118541
0.11108
0.114074
0.117517
0.105563
0.109545
0.109482
0.099662
0.104432
0.105864
0.0965323
0.102965
0.101692
0.0960286
0.107315
0.0976103
0.0910159
0.0935707
0.0945239
0.0860914
0.0872041
0.0817639
0.0839459
0.0723276
0.0676895
0.0693178
0.0682849
0.065852
0.058017
0.0504683
0.0382399
0.0260469
0.0168179
0.00880495
0.00903563
0.0104671
0.0179349
0.0216083
0.0357775
0.0439015
0.0493702
0.0589348
0.0584471
0.0730355
0.0826713
0.086914
0.10224
0.104117
0.109258
0.108534
0.121304
0.125444
0.139143
0.140444
0.137587
0.148864
0.162278
0.167626
0.153729
0.158525
0.166254
0.170595
0.169137
0.17507
0.180207
0.178483
0.177593
0.190238
0.181711
0.173522
0.176992
0.19568
0.186023
0.197356
0.182705
0.182414
0.193262
0.186943
0.185438
0.17755
0.1724
0.176451
0.171752
0.164919
0.176859
0.179989
0.165811
0.167168
0.165781
0.166562
0.164777
0.176469
0.170041
0.171193
0.158283
0.164154
0.169543
0.163191
0.163945
0.152211
0.15613
0.160692
0.153771
0.157084
0.154312
0.150789
0.156002
0.151556
0.150771
0.159143
0.148647
0.154185
0.141869
0.150422
0.145106
0.148528
0.146222
0.147583
0.145477
0.140728
0.136698
0.136866
0.146653
0.137007
0.13125
0.12785
0.137985
0.1354
0.137523
0.136748
0.137737
0.141017
0.139084
0.14676
0.128618
0.13492
0.134497
0.134338
0.130353
0.121815
0.128741
0.12588
0.128562
0.126378
0.123335
0.13291
0.124474
0.119497
0.128465
0.122686
0.12015
0.121128
0.120894
0.118918
0.122733
0.124029
0.119261
0.108255
0.125905
0.117589
0.12094
0.121113
0.118418
0.111663
0.110414
0.112782
0.110452
0.111651
0.101003
0.106188
0.10813
0.0993891
0.116361
0.0984686
0.0985698
0.0991818
0.0975215
0.0899985
0.0926666
0.084032
0.0858949
0.0739377
0.0762485
0.0702914
0.0735435
0.063874
0.0636985
0.0486721
0.0400597
0.0274122
0.0110439
0.00863461
0.00783165
